<?xml version="1.0" encoding="UTF-8"?>

<!-- generated on 2024-07-29 15:07:00 by Eclipse SUMO GUI Version 1.20.0
<configuration xmlns:xsi="http://www.w3.org/2001/XMLSchema-instance" xsi:noNamespaceSchemaLocation="http://sumo.dlr.de/xsd/sumoConfiguration.xsd">

    <input>
        <net-file value="test.net.xml"/>
        <route-files value="test.rou.xml"/>
    </input>

    <output>
        <fcd-output value="FCD.xml"/>
        <edgedata-output value="edgeOutput.xml"/>
        <lanedata-output value="laneOutput.xml"/>
    </output>

    <traci_server>
        <remote-port value="61946"/>
    </traci_server>

</configuration>
-->

<fcd-export xmlns:xsi="http://www.w3.org/2001/XMLSchema-instance" xsi:noNamespaceSchemaLocation="http://sumo.dlr.de/xsd/fcd_file.xsd">
    <timestep time="0.00">
        <vehicle id="0" x="85.79" y="131.01" angle="115.93" type="car" speed="0.00" pos="5.10" lane="e1_0" slope="0.00"/>
    </timestep>
    <timestep time="1.00">
        <vehicle id="0" x="88.26" y="129.81" angle="115.93" type="car" speed="2.75" pos="7.85" lane="e1_0" slope="0.00"/>
    </timestep>
    <timestep time="2.00">
        <vehicle id="0" x="93.55" y="127.24" angle="115.93" type="car" speed="5.88" pos="13.73" lane="e1_0" slope="0.00"/>
    </timestep>
    <timestep time="3.00">
        <vehicle id="0" x="99.87" y="124.16" angle="115.93" type="car" speed="7.03" pos="20.76" lane="e1_0" slope="0.00"/>
        <vehicle id="1" x="85.79" y="131.01" angle="115.93" type="car" speed="0.00" pos="5.10" lane="e1_0" slope="0.00"/>
    </timestep>
    <timestep time="4.00">
        <vehicle id="0" x="106.91" y="120.74" angle="115.93" type="car" speed="7.83" pos="28.59" lane="e1_0" slope="0.00"/>
        <vehicle id="1" x="86.72" y="130.55" angle="115.93" type="car" speed="1.04" pos="6.14" lane="e1_0" slope="0.00"/>
    </timestep>
    <timestep time="5.00">
        <vehicle id="0" x="115.10" y="116.76" angle="115.93" type="car" speed="9.11" pos="37.69" lane="e1_0" slope="0.00"/>
        <vehicle id="1" x="88.10" y="129.88" angle="115.93" type="car" speed="1.53" pos="7.68" lane="e1_0" slope="0.00"/>
    </timestep>
    <timestep time="6.00">
        <vehicle id="0" x="123.16" y="112.84" angle="115.93" type="car" speed="8.96" pos="46.66" lane="e1_0" slope="0.00"/>
        <vehicle id="1" x="89.93" y="128.99" angle="115.93" type="car" speed="2.03" pos="9.71" lane="e1_0" slope="0.00"/>
    </timestep>
    <timestep time="7.00">
        <vehicle id="0" x="131.18" y="108.94" angle="115.93" type="car" speed="8.91" pos="55.57" lane="e1_0" slope="0.00"/>
        <vehicle id="1" x="94.69" y="126.68" angle="115.93" type="car" speed="5.29" pos="15.00" lane="e1_0" slope="0.00"/>
        <vehicle id="test" x="87.59" y="130.14" angle="115.93" type="ev" speed="0.00" pos="7.10" lane="e1_0" slope="0.00"/>
    </timestep>
    <timestep time="8.00">
        <vehicle id="0" x="138.22" y="105.52" angle="115.93" type="car" speed="7.84" pos="63.40" lane="e1_0" slope="0.00"/>
        <vehicle id="1" x="100.11" y="124.05" angle="115.93" type="car" speed="6.02" pos="21.02" lane="e1_0" slope="0.00"/>
        <vehicle id="test" x="87.95" y="129.96" angle="115.93" type="ev" speed="0.40" pos="7.50" lane="e1_0" slope="0.00"/>
    </timestep>
    <timestep time="9.00">
        <vehicle id="0" x="146.30" y="101.59" angle="115.93" type="car" speed="8.97" pos="72.38" lane="e1_0" slope="0.00"/>
        <vehicle id="1" x="106.58" y="120.90" angle="115.93" type="car" speed="7.20" pos="28.22" lane="e1_0" slope="0.00"/>
        <vehicle id="test" x="91.36" y="128.30" angle="115.93" type="ev" speed="3.79" pos="11.30" lane="e1_0" slope="0.00"/>
    </timestep>
    <timestep time="10.00">
        <vehicle id="0" x="152.39" y="98.63" angle="115.93" type="car" speed="6.77" pos="79.15" lane="e1_0" slope="0.00"/>
        <vehicle id="1" x="113.00" y="117.78" angle="115.93" type="car" speed="7.14" pos="35.36" lane="e1_0" slope="0.00"/>
        <vehicle id="2" x="85.79" y="131.01" angle="115.93" type="car" speed="0.00" pos="5.10" lane="e1_0" slope="0.00"/>
        <vehicle id="test" x="96.37" y="125.86" angle="115.93" type="ev" speed="5.57" pos="16.87" lane="e1_0" slope="0.00"/>
    </timestep>
    <timestep time="11.00">
        <vehicle id="0" x="156.50" y="96.63" angle="115.93" type="car" speed="4.57" pos="83.73" lane="e1_0" slope="0.00"/>
        <vehicle id="1" x="121.97" y="113.42" angle="115.93" type="car" speed="9.97" pos="45.33" lane="e1_0" slope="0.00"/>
        <vehicle id="2" x="87.85" y="130.01" angle="115.93" type="car" speed="2.30" pos="7.40" lane="e1_0" slope="0.00"/>
        <vehicle id="test" x="101.71" y="123.27" angle="115.93" type="ev" speed="5.93" pos="22.80" lane="e1_0" slope="0.00"/>
    </timestep>
    <timestep time="12.00">
        <vehicle id="0" x="157.99" y="94.98" angle="126.04" type="car" speed="2.37" pos="1.71" lane=":j2_0_0" slope="0.00"/>
        <vehicle id="1" x="128.95" y="110.02" angle="115.93" type="car" speed="7.77" pos="53.09" lane="e1_0" slope="0.00"/>
        <vehicle id="2" x="90.33" y="128.80" angle="115.93" type="car" speed="2.76" pos="10.15" lane="e1_0" slope="0.00"/>
        <vehicle id="test" x="110.81" y="122.40" angle="115.93" type="ev" speed="8.57" pos="31.37" lane="e1_1" slope="0.00"/>
    </timestep>
    <timestep time="13.00">
        <vehicle id="0" x="158.01" y="91.45" angle="171.48" type="car" speed="3.53" pos="3.45" lane="e2_0" slope="0.00"/>
        <vehicle id="1" x="134.85" y="107.16" angle="115.93" type="car" speed="6.56" pos="59.66" lane="e1_0" slope="0.00"/>
        <vehicle id="2" x="95.06" y="126.50" angle="115.93" type="car" speed="5.26" pos="15.41" lane="e1_0" slope="0.00"/>
        <vehicle id="3" x="85.79" y="131.01" angle="115.93" type="car" speed="0.00" pos="5.10" lane="e1_0" slope="0.00"/>
        <vehicle id="test" x="116.79" y="119.49" angle="115.93" type="ev" speed="6.65" pos="38.02" lane="e1_1" slope="0.00"/>
    </timestep>
    <timestep time="14.00">
        <vehicle id="0" x="158.04" y="84.67" angle="179.78" type="car" speed="6.78" pos="10.23" lane="e2_0" slope="0.00"/>
        <vehicle id="1" x="141.07" y="104.13" angle="115.93" type="car" speed="6.92" pos="66.57" lane="e1_0" slope="0.00"/>
        <vehicle id="2" x="99.84" y="124.18" angle="115.93" type="car" speed="5.31" pos="20.73" lane="e1_0" slope="0.00"/>
        <vehicle id="3" x="88.67" y="129.61" angle="115.93" type="car" speed="3.21" pos="8.31" lane="e1_0" slope="0.00"/>
        <vehicle id="test" x="123.14" y="116.41" angle="115.93" type="ev" speed="7.06" pos="45.07" lane="e1_1" slope="0.00"/>
    </timestep>
    <timestep time="15.00">
        <vehicle id="0" x="158.07" y="75.97" angle="179.78" type="car" speed="8.70" pos="18.93" lane="e2_0" slope="0.00"/>
        <vehicle id="1" x="146.73" y="101.38" angle="115.93" type="car" speed="6.29" pos="72.87" lane="e1_0" slope="0.00"/>
        <vehicle id="2" x="106.07" y="121.15" angle="115.93" type="car" speed="6.92" pos="27.65" lane="e1_0" slope="0.00"/>
        <vehicle id="3" x="90.74" y="128.60" angle="115.93" type="car" speed="2.29" pos="10.60" lane="e1_0" slope="0.00"/>
        <vehicle id="test" x="129.37" y="113.38" angle="115.93" type="ev" speed="6.93" pos="52.00" lane="e1_1" slope="0.00"/>
    </timestep>
    <timestep time="16.00">
        <vehicle id="0" x="158.10" y="69.37" angle="179.78" type="car" speed="6.60" pos="25.53" lane="e2_0" slope="0.00"/>
        <vehicle id="1" x="151.39" y="99.12" angle="115.93" type="car" speed="5.17" pos="78.04" lane="e1_0" slope="0.00"/>
        <vehicle id="2" x="113.18" y="117.69" angle="115.93" type="car" speed="7.91" pos="35.56" lane="e1_0" slope="0.00"/>
        <vehicle id="3" x="94.79" y="126.63" angle="115.93" type="car" speed="4.50" pos="15.11" lane="e1_0" slope="0.00"/>
        <vehicle id="test" x="138.24" y="109.06" angle="115.93" type="ev" speed="9.87" pos="61.87" lane="e1_1" slope="0.00"/>
    </timestep>
    <timestep time="17.00">
        <vehicle id="0" x="158.12" y="61.98" angle="179.78" type="car" speed="7.38" pos="32.92" lane="e2_0" slope="0.00"/>
        <vehicle id="1" x="154.72" y="97.50" angle="115.93" type="car" speed="3.70" pos="81.74" lane="e1_0" slope="0.00"/>
        <vehicle id="2" x="120.59" y="114.09" angle="115.93" type="car" speed="8.24" pos="43.80" lane="e1_0" slope="0.00"/>
        <vehicle id="3" x="99.88" y="124.16" angle="115.93" type="car" speed="5.66" pos="20.77" lane="e1_0" slope="0.00"/>
        <vehicle id="test" x="145.92" y="105.33" angle="115.93" type="ev" speed="8.54" pos="70.41" lane="e1_1" slope="0.00"/>
    </timestep>
    <timestep time="18.00">
        <vehicle id="0" x="158.15" y="55.30" angle="179.78" type="car" speed="6.68" pos="39.60" lane="e2_0" slope="0.00"/>
        <vehicle id="1" x="157.23" y="96.25" angle="116.17" type="car" speed="2.81" pos="0.16" lane=":j2_0_0" slope="0.00"/>
        <vehicle id="2" x="128.38" y="110.30" angle="115.93" type="car" speed="8.66" pos="52.45" lane="e1_0" slope="0.00"/>
        <vehicle id="3" x="106.56" y="120.91" angle="115.93" type="car" speed="7.43" pos="28.20" lane="e1_0" slope="0.00"/>
        <vehicle id="test" x="153.14" y="101.82" angle="115.93" type="ev" speed="8.02" pos="78.43" lane="e1_1" slope="0.00"/>
    </timestep>
    <timestep time="19.00">
        <vehicle id="0" x="158.18" y="46.63" angle="179.78" type="car" speed="8.67" pos="48.27" lane="e2_0" slope="0.00"/>
        <vehicle id="1" x="157.70" y="95.84" angle="118.07" type="car" speed="0.62" pos="0.78" lane=":j2_0_0" slope="0.00"/>
        <vehicle id="2" x="136.10" y="106.55" angle="115.93" type="car" speed="8.59" pos="61.04" lane="e1_0" slope="0.00"/>
        <vehicle id="3" x="112.43" y="118.06" angle="115.93" type="car" speed="6.53" pos="34.73" lane="e1_0" slope="0.00"/>
        <vehicle id="test" x="158.54" y="99.18" angle="115.98" type="ev" speed="6.02" pos="0.05" lane=":j2_0_1" slope="0.00"/>
    </timestep>
    <timestep time="20.00">
        <vehicle id="0" x="158.21" y="37.90" angle="179.78" type="car" speed="8.74" pos="57.00" lane="e2_0" slope="0.00"/>
        <vehicle id="1" x="158.01" y="92.56" angle="157.83" type="car" speed="3.34" pos="2.34" lane="e2_0" slope="0.00"/>
        <vehicle id="2" x="141.84" y="103.76" angle="115.93" type="car" speed="6.39" pos="67.43" lane="e1_0" slope="0.00"/>
        <vehicle id="3" x="118.59" y="115.06" angle="115.93" type="car" speed="6.84" pos="41.57" lane="e1_0" slope="0.00"/>
        <vehicle id="test" x="161.13" y="95.45" angle="135.74" type="ev" speed="4.78" pos="4.83" lane=":j2_0_1" slope="0.00"/>
    </timestep>
    <timestep time="21.00">
        <vehicle id="0" x="158.24" y="31.36" angle="179.78" type="car" speed="6.54" pos="63.54" lane="e2_0" slope="0.00"/>
        <vehicle id="1" x="158.03" y="88.00" angle="179.78" type="car" speed="4.57" pos="6.90" lane="e2_0" slope="0.00"/>
        <vehicle id="2" x="147.35" y="101.08" angle="115.93" type="car" speed="6.13" pos="73.55" lane="e1_0" slope="0.00"/>
        <vehicle id="3" x="127.46" y="114.31" angle="115.93" type="car" speed="8.30" pos="49.87" lane="e1_1" slope="0.00"/>
        <vehicle id="test" x="161.22" y="90.88" angle="172.68" type="ev" speed="4.58" pos="4.04" lane="e2_1" slope="0.00"/>
    </timestep>
    <timestep time="22.00">
        <vehicle id="0" x="158.26" y="24.81" angle="179.78" type="car" speed="6.55" pos="70.09" lane="e2_0" slope="0.00"/>
        <vehicle id="1" x="158.04" y="83.38" angle="179.78" type="car" speed="4.62" pos="11.52" lane="e2_0" slope="0.00"/>
        <vehicle id="2" x="152.81" y="98.42" angle="115.93" type="car" speed="6.07" pos="79.62" lane="e1_0" slope="0.00"/>
        <vehicle id="3" x="136.03" y="110.14" angle="115.93" type="car" speed="9.54" pos="59.41" lane="e1_1" slope="0.00"/>
        <vehicle id="test" x="161.24" y="83.30" angle="179.78" type="ev" speed="7.58" pos="11.62" lane="e2_1" slope="0.00"/>
    </timestep>
    <timestep time="23.00">
        <vehicle id="0" x="158.28" y="20.46" angle="179.78" type="car" speed="4.35" pos="74.44" lane="e2_0" slope="0.00"/>
        <vehicle id="1" x="158.06" y="78.35" angle="179.78" type="car" speed="5.03" pos="16.55" lane="e2_0" slope="0.00"/>
        <vehicle id="2" x="158.07" y="99.42" angle="115.93" type="car" speed="4.29" pos="83.91" lane="e1_1" slope="0.00"/>
        <vehicle id="3" x="142.63" y="106.93" angle="115.93" type="car" speed="7.34" pos="66.75" lane="e1_1" slope="0.00"/>
        <vehicle id="test" x="161.26" y="77.93" angle="179.78" type="ev" speed="5.38" pos="16.99" lane="e2_1" slope="0.00"/>
    </timestep>
    <timestep time="24.00">
        <vehicle id="0" x="158.29" y="18.30" angle="179.78" type="car" speed="2.15" pos="76.60" lane="e2_0" slope="0.00"/>
        <vehicle id="1" x="158.09" y="71.49" angle="179.78" type="car" speed="6.86" pos="23.41" lane="e2_0" slope="0.00"/>
        <vehicle id="2" x="161.13" y="95.46" angle="143.90" type="car" speed="5.31" pos="4.83" lane=":j2_0_1" slope="0.00"/>
        <vehicle id="3" x="147.25" y="104.68" angle="115.93" type="car" speed="5.14" pos="71.88" lane="e1_1" slope="0.00"/>
        <vehicle id="test" x="161.28" y="74.75" angle="179.78" type="ev" speed="3.18" pos="20.17" lane="e2_1" slope="0.00"/>
    </timestep>
    <timestep time="25.00">
        <vehicle id="0" x="155.64" y="15.39" angle="215.73" type="car" speed="4.24" pos="2.21" lane="e3_0" slope="0.00"/>
        <vehicle id="1" x="158.12" y="63.75" angle="179.78" type="car" speed="7.74" pos="31.15" lane="e2_0" slope="0.00"/>
        <vehicle id="2" x="161.22" y="89.31" angle="179.78" type="car" speed="6.15" pos="5.61" lane="e2_1" slope="0.00"/>
        <vehicle id="3" x="153.24" y="101.77" angle="115.93" type="car" speed="6.66" pos="78.54" lane="e1_1" slope="0.00"/>
        <vehicle id="test" x="161.28" y="73.77" angle="179.78" type="ev" speed="0.98" pos="21.15" lane="e2_1" slope="0.00"/>
    </timestep>
    <timestep time="26.00">
        <vehicle id="0" x="149.93" y="11.89" angle="238.51" type="car" speed="6.70" pos="8.91" lane="e3_0" slope="0.00"/>
        <vehicle id="1" x="158.15" y="54.89" angle="179.78" type="car" speed="8.87" pos="40.01" lane="e2_0" slope="0.00"/>
        <vehicle id="2" x="161.24" y="85.31" angle="179.78" type="car" speed="4.00" pos="9.61" lane="e2_1" slope="0.00"/>
        <vehicle id="3" x="158.65" y="102.70" angle="115.93" type="car" speed="4.46" pos="83.00" lane="e1_2" slope="0.00"/>
        <vehicle id="test" x="161.29" y="71.47" angle="179.78" type="ev" speed="2.30" pos="23.45" lane="e2_1" slope="0.00"/>
    </timestep>
    <timestep time="27.00">
        <vehicle id="0" x="141.60" y="6.79" angle="238.51" type="car" speed="9.77" pos="18.68" lane="e3_0" slope="0.00"/>
        <vehicle id="1" x="158.18" y="47.14" angle="179.78" type="car" speed="7.75" pos="47.76" lane="e2_0" slope="0.00"/>
        <vehicle id="2" x="161.24" y="83.51" angle="179.78" type="car" speed="1.80" pos="11.41" lane="e2_1" slope="0.00"/>
        <vehicle id="3" x="162.98" y="99.53" angle="127.08" type="car" speed="5.44" pos="4.05" lane=":j2_0_2" slope="0.00"/>
        <vehicle id="test" x="161.30" y="67.53" angle="179.78" type="ev" speed="3.94" pos="27.39" lane="e2_1" slope="0.00"/>
    </timestep>
    <timestep time="28.00">
        <vehicle id="0" x="133.67" y="1.93" angle="238.51" type="car" speed="9.30" pos="27.98" lane="e3_0" slope="0.00"/>
        <vehicle id="1" x="158.21" y="38.61" angle="179.78" type="car" speed="8.53" pos="56.29" lane="e2_0" slope="0.00"/>
        <vehicle id="2" x="161.26" y="79.45" angle="179.78" type="car" speed="4.05" pos="15.47" lane="e2_1" slope="0.00"/>
        <vehicle id="3" x="164.40" y="94.85" angle="163.07" type="car" speed="4.98" pos="0.08" lane="e2_2" slope="0.00"/>
        <vehicle id="test" x="161.33" y="60.51" angle="179.78" type="ev" speed="7.02" pos="34.41" lane="e2_1" slope="0.00"/>
    </timestep>
    <timestep time="29.00">
        <vehicle id="0" x="125.86" y="-2.85" angle="238.51" type="car" speed="9.16" pos="37.14" lane="e3_0" slope="0.00"/>
        <vehicle id="1" x="158.24" y="32.28" angle="179.78" type="car" speed="6.33" pos="62.62" lane="e2_0" slope="0.00"/>
        <vehicle id="2" x="161.28" y="73.55" angle="179.78" type="car" speed="5.90" pos="21.37" lane="e2_1" slope="0.00"/>
        <vehicle id="3" x="164.43" y="86.58" angle="179.78" type="car" speed="8.27" pos="8.35" lane="e2_2" slope="0.00"/>
        <vehicle id="test" x="161.36" y="51.15" angle="179.78" type="ev" speed="9.35" pos="43.76" lane="e2_1" slope="0.00"/>
    </timestep>
    <timestep time="30.00">
        <vehicle id="0" x="117.95" y="-7.70" angle="238.51" type="car" speed="9.28" pos="46.42" lane="e3_0" slope="0.00"/>
        <vehicle id="1" x="158.26" y="24.64" angle="179.78" type="car" speed="7.64" pos="70.26" lane="e2_0" slope="0.00"/>
        <vehicle id="2" x="161.31" y="64.50" angle="179.78" type="car" speed="9.05" pos="30.42" lane="e2_1" slope="0.00"/>
        <vehicle id="3" x="164.46" y="79.19" angle="179.78" type="car" speed="7.38" pos="15.74" lane="e2_2" slope="0.00"/>
        <vehicle id="test" x="161.39" y="44.00" angle="179.78" type="ev" speed="7.15" pos="50.92" lane="e2_1" slope="0.00"/>
    </timestep>
    <timestep time="31.00">
        <vehicle id="0" x="111.22" y="-11.82" angle="238.51" type="car" speed="7.89" pos="54.30" lane="e3_0" slope="0.00"/>
        <vehicle id="1" x="158.29" y="19.20" angle="179.78" type="car" speed="5.44" pos="75.70" lane="e2_0" slope="0.00"/>
        <vehicle id="2" x="161.34" y="57.65" angle="179.78" type="car" speed="6.85" pos="37.27" lane="e2_1" slope="0.00"/>
        <vehicle id="3" x="164.49" y="72.02" angle="179.78" type="car" speed="7.17" pos="22.91" lane="e2_2" slope="0.00"/>
        <vehicle id="test" x="161.43" y="34.14" angle="179.78" type="ev" speed="9.86" pos="60.77" lane="e2_1" slope="0.00"/>
    </timestep>
    <timestep time="32.00">
        <vehicle id="0" x="105.54" y="-15.30" angle="238.51" type="car" speed="6.66" pos="60.96" lane="e3_0" slope="0.00"/>
        <vehicle id="1" x="157.25" y="16.38" angle="192.61" type="car" speed="3.24" pos="0.32" lane="e3_0" slope="0.00"/>
        <vehicle id="2" x="161.37" y="50.62" angle="179.78" type="car" speed="7.03" pos="44.30" lane="e2_1" slope="0.00"/>
        <vehicle id="3" x="164.52" y="62.22" angle="179.78" type="car" speed="9.80" pos="32.71" lane="e2_2" slope="0.00"/>
        <vehicle id="test" x="161.46" y="26.40" angle="179.78" type="ev" speed="7.74" pos="68.51" lane="e2_1" slope="0.00"/>
    </timestep>
    <timestep time="33.00">
        <vehicle id="0" x="98.98" y="-19.31" angle="238.51" type="car" speed="7.69" pos="68.65" lane="e3_0" slope="0.00"/>
        <vehicle id="1" x="154.32" y="14.58" angle="233.26" type="car" speed="3.44" pos="3.76" lane="e3_0" slope="0.00"/>
        <vehicle id="2" x="161.40" y="42.64" angle="179.78" type="car" speed="7.98" pos="52.28" lane="e2_1" slope="0.00"/>
        <vehicle id="3" x="164.55" y="54.61" angle="179.78" type="car" speed="7.60" pos="40.32" lane="e2_2" slope="0.00"/>
        <vehicle id="test" x="161.49" y="19.21" angle="179.78" type="ev" speed="7.18" pos="75.70" lane="e2_1" slope="0.00"/>
    </timestep>
    <timestep time="34.00">
        <vehicle id="0" x="92.49" y="-23.29" angle="238.51" type="car" speed="7.61" pos="76.27" lane="e3_0" slope="0.00"/>
        <vehicle id="1" x="149.22" y="11.46" angle="238.51" type="car" speed="5.98" pos="9.74" lane="e3_0" slope="0.00"/>
        <vehicle id="2" x="161.42" y="35.92" angle="179.78" type="car" speed="6.71" pos="58.99" lane="e2_1" slope="0.00"/>
        <vehicle id="3" x="164.58" y="46.56" angle="179.78" type="car" speed="8.06" pos="48.37" lane="e2_2" slope="0.00"/>
        <vehicle id="test" x="160.17" y="14.58" angle="191.15" type="ev" speed="4.98" pos="3.70" lane=":j3_0_1" slope="0.00"/>
    </timestep>
    <timestep time="35.00">
        <vehicle id="0" x="87.32" y="-26.46" angle="238.51" type="car" speed="6.06" pos="82.33" lane="e3_0" slope="0.00"/>
        <vehicle id="1" x="142.37" y="7.26" angle="238.51" type="car" speed="8.04" pos="17.78" lane="e3_0" slope="0.00"/>
        <vehicle id="2" x="158.24" y="31.40" angle="179.78" type="car" speed="4.51" pos="63.50" lane="e2_0" slope="0.00"/>
        <vehicle id="3" x="164.61" y="38.53" angle="179.78" type="car" speed="8.03" pos="56.40" lane="e2_2" slope="0.00"/>
        <vehicle id="test" x="157.87" y="13.01" angle="213.62" type="ev" speed="2.78" pos="1.56" lane="e3_1" slope="0.00"/>
    </timestep>
    <timestep time="36.00">
        <vehicle id="0" x="83.90" y="-28.55" angle="238.51" type="car" speed="4.02" pos="86.34" lane="e3_0" slope="0.00"/>
        <vehicle id="1" x="135.72" y="3.19" angle="238.51" type="car" speed="7.80" pos="25.57" lane="e3_0" slope="0.00"/>
        <vehicle id="2" x="158.27" y="24.26" angle="179.78" type="car" speed="7.14" pos="70.64" lane="e2_0" slope="0.00"/>
        <vehicle id="3" x="164.65" y="28.69" angle="179.78" type="car" speed="9.84" pos="66.24" lane="e2_2" slope="0.00"/>
        <vehicle id="test" x="157.38" y="12.70" angle="218.52" type="ev" speed="0.58" pos="2.14" lane="e3_1" slope="0.00"/>
    </timestep>
    <timestep time="37.00">
        <vehicle id="0" x="82.35" y="-29.50" angle="238.51" type="car" speed="1.82" pos="88.16" lane="e3_0" slope="0.00"/>
        <vehicle id="1" x="127.28" y="-1.98" angle="238.51" type="car" speed="9.90" pos="35.47" lane="e3_0" slope="0.00"/>
        <vehicle id="2" x="158.28" y="19.32" angle="179.78" type="car" speed="4.94" pos="75.58" lane="e2_0" slope="0.00"/>
        <vehicle id="3" x="164.68" y="19.33" angle="179.78" type="car" speed="9.36" pos="75.60" lane="e2_2" slope="0.00"/>
        <vehicle id="test" x="155.34" y="11.45" angle="233.67" type="ev" speed="2.39" pos="4.53" lane="e3_1" slope="0.00"/>
    </timestep>
    <timestep time="38.00">
        <vehicle id="0" x="79.52" y="-29.34" angle="259.41" type="car" speed="3.10" pos="0.91" lane="e4_0" slope="0.00"/>
        <vehicle id="1" x="120.72" y="-6.00" angle="238.51" type="car" speed="7.70" pos="43.17" lane="e3_0" slope="0.00"/>
        <vehicle id="2" x="157.76" y="16.73" angle="186.08" type="car" speed="2.74" pos="1.35" lane=":j3_0_0" slope="0.00"/>
        <vehicle id="3" x="162.74" y="12.65" angle="202.41" type="car" speed="7.16" pos="5.78" lane=":j3_0_2" slope="0.00"/>
        <vehicle id="test" x="152.32" y="9.61" angle="238.51" type="ev" speed="3.54" pos="8.07" lane="e3_1" slope="0.00"/>
    </timestep>
    <timestep time="39.00">
        <vehicle id="0" x="75.73" y="-27.21" angle="299.33" type="car" speed="4.35" pos="5.26" lane="e4_0" slope="0.00"/>
        <vehicle id="1" x="112.27" y="-11.18" angle="238.51" type="car" speed="9.91" pos="53.08" lane="e3_0" slope="0.00"/>
        <vehicle id="2" x="155.39" y="15.24" angle="219.36" type="car" speed="2.80" pos="2.51" lane="e3_0" slope="0.00"/>
        <vehicle id="3" x="157.04" y="8.75" angle="237.85" type="car" speed="6.93" pos="4.49" lane="e3_2" slope="0.00"/>
        <vehicle id="test" x="147.94" y="6.92" angle="238.51" type="ev" speed="5.13" pos="13.20" lane="e3_1" slope="0.00"/>
    </timestep>
    <timestep time="40.00">
        <vehicle id="0" x="69.18" y="-23.53" angle="299.33" type="car" speed="7.52" pos="12.78" lane="e4_0" slope="0.00"/>
        <vehicle id="1" x="105.28" y="-15.45" angle="238.51" type="car" speed="8.19" pos="61.27" lane="e3_0" slope="0.00"/>
        <vehicle id="2" x="151.29" y="12.73" angle="238.51" type="car" speed="4.81" pos="7.32" lane="e3_0" slope="0.00"/>
        <vehicle id="3" x="149.00" y="3.82" angle="238.51" type="car" speed="9.43" pos="13.92" lane="e3_2" slope="0.00"/>
        <vehicle id="test" x="141.55" y="3.00" angle="238.51" type="ev" speed="7.50" pos="20.70" lane="e3_1" slope="0.00"/>
    </timestep>
    <timestep time="41.00">
        <vehicle id="0" x="61.97" y="-19.48" angle="299.33" type="car" speed="8.27" pos="21.05" lane="e4_0" slope="0.00"/>
        <vehicle id="1" x="97.76" y="-20.07" angle="238.51" type="car" speed="8.83" pos="70.09" lane="e3_0" slope="0.00"/>
        <vehicle id="2" x="147.12" y="10.17" angle="238.51" type="car" speed="4.89" pos="12.21" lane="e3_0" slope="0.00"/>
        <vehicle id="3" x="142.83" y="0.04" angle="238.51" type="car" speed="7.23" pos="21.15" lane="e3_2" slope="0.00"/>
        <vehicle id="test" x="133.37" y="-2.00" angle="238.51" type="ev" speed="9.59" pos="30.29" lane="e3_1" slope="0.00"/>
    </timestep>
    <timestep time="42.00">
        <vehicle id="0" x="53.64" y="-14.80" angle="299.33" type="car" speed="9.55" pos="30.60" lane="e4_0" slope="0.00"/>
        <vehicle id="1" x="91.90" y="-23.65" angle="238.51" type="car" speed="6.87" pos="76.96" lane="e3_0" slope="0.00"/>
        <vehicle id="2" x="142.14" y="7.12" angle="238.51" type="car" speed="5.84" pos="18.05" lane="e3_0" slope="0.00"/>
        <vehicle id="3" x="136.17" y="-4.04" angle="238.51" type="car" speed="7.81" pos="28.96" lane="e3_2" slope="0.00"/>
        <vehicle id="test" x="127.07" y="-5.86" angle="238.51" type="ev" speed="7.39" pos="37.68" lane="e3_1" slope="0.00"/>
    </timestep>
    <timestep time="43.00">
        <vehicle id="0" x="47.23" y="-11.20" angle="299.33" type="car" speed="7.35" pos="37.95" lane="e4_0" slope="0.00"/>
        <vehicle id="1" x="87.92" y="-26.09" angle="238.51" type="car" speed="4.67" pos="81.63" lane="e3_0" slope="0.00"/>
        <vehicle id="2" x="135.33" y="2.95" angle="238.51" type="car" speed="7.99" pos="26.04" lane="e3_0" slope="0.00"/>
        <vehicle id="3" x="128.81" y="-8.55" angle="238.51" type="car" speed="8.64" pos="37.60" lane="e3_2" slope="0.00"/>
        <vehicle id="test" x="118.59" y="-11.06" angle="238.51" type="ev" speed="9.95" pos="47.63" lane="e3_1" slope="0.00"/>
    </timestep>
    <timestep time="44.00">
        <vehicle id="0" x="41.30" y="-7.86" angle="299.33" type="car" speed="6.81" pos="44.76" lane="e4_0" slope="0.00"/>
        <vehicle id="1" x="84.88" y="-27.95" angle="238.51" type="car" speed="3.56" pos="85.19" lane="e3_0" slope="0.00"/>
        <vehicle id="2" x="126.93" y="-2.19" angle="238.51" type="car" speed="9.85" pos="35.88" lane="e3_0" slope="0.00"/>
        <vehicle id="3" x="122.77" y="-12.25" angle="238.51" type="car" speed="7.08" pos="44.68" lane="e3_2" slope="0.00"/>
        <vehicle id="test" x="110.97" y="-15.73" angle="238.51" type="ev" speed="8.94" pos="56.57" lane="e3_1" slope="0.00"/>
    </timestep>
    <timestep time="45.00">
        <vehicle id="0" x="35.16" y="-4.42" angle="299.33" type="car" speed="7.04" pos="51.79" lane="e4_0" slope="0.00"/>
        <vehicle id="1" x="81.81" y="-29.82" angle="238.67" type="car" speed="3.59" pos="0.13" lane=":j4_0_0" slope="0.00"/>
        <vehicle id="2" x="120.41" y="-6.19" angle="238.51" type="car" speed="7.65" pos="43.53" lane="e3_0" slope="0.00"/>
        <vehicle id="3" x="114.35" y="-17.41" angle="238.51" type="car" speed="9.88" pos="54.56" lane="e3_2" slope="0.00"/>
        <vehicle id="test" x="105.22" y="-19.25" angle="238.51" type="ev" speed="6.74" pos="63.31" lane="e3_1" slope="0.00"/>
    </timestep>
    <timestep time="46.00">
        <vehicle id="0" x="26.75" y="0.31" angle="299.33" type="car" speed="9.64" pos="61.44" lane="e4_0" slope="0.00"/>
        <vehicle id="1" x="78.63" y="-28.84" angle="272.75" type="car" speed="3.51" pos="1.94" lane="e4_0" slope="0.00"/>
        <vehicle id="2" x="113.07" y="-10.68" angle="238.51" type="car" speed="8.60" pos="52.13" lane="e3_0" slope="0.00"/>
        <vehicle id="3" x="107.80" y="-21.42" angle="238.51" type="car" speed="7.68" pos="62.24" lane="e3_2" slope="0.00"/>
        <vehicle id="test" x="98.41" y="-23.42" angle="238.51" type="ev" speed="7.99" pos="71.29" lane="e3_1" slope="0.00"/>
    </timestep>
    <timestep time="47.00">
        <vehicle id="0" x="19.83" y="4.20" angle="299.33" type="car" speed="7.94" pos="69.38" lane="e4_0" slope="0.00"/>
        <vehicle id="1" x="72.52" y="-25.41" angle="299.33" type="car" speed="7.00" pos="8.95" lane="e4_0" slope="0.00"/>
        <vehicle id="2" x="107.43" y="-14.14" angle="238.51" type="car" speed="6.62" pos="58.75" lane="e3_0" slope="0.00"/>
        <vehicle id="3" x="99.59" y="-26.45" angle="238.51" type="car" speed="9.62" pos="71.86" lane="e3_2" slope="0.00"/>
        <vehicle id="test" x="90.82" y="-28.07" angle="238.51" type="ev" speed="8.90" pos="80.20" lane="e3_1" slope="0.00"/>
    </timestep>
    <timestep time="48.00">
        <vehicle id="0" x="12.07" y="8.56" angle="299.33" type="car" speed="8.90" pos="78.28" lane="e4_0" slope="0.00"/>
        <vehicle id="1" x="66.15" y="-21.83" angle="299.33" type="car" speed="7.30" pos="16.25" lane="e4_0" slope="0.00"/>
        <vehicle id="2" x="99.23" y="-19.16" angle="238.51" type="car" speed="9.62" pos="68.37" lane="e3_0" slope="0.00"/>
        <vehicle id="3" x="92.70" y="-30.68" angle="238.51" type="car" speed="8.09" pos="79.95" lane="e3_2" slope="0.00"/>
        <vehicle id="test" x="83.87" y="-32.33" angle="238.51" type="ev" speed="8.15" pos="88.34" lane="e3_1" slope="0.00"/>
    </timestep>
    <timestep time="49.00">
        <vehicle id="0" x="6.23" y="11.84" angle="299.33" type="car" speed="6.70" pos="84.98" lane="e4_0" slope="0.00"/>
        <vehicle id="1" x="59.53" y="-18.11" angle="299.33" type="car" speed="7.60" pos="23.84" lane="e4_0" slope="0.00"/>
        <vehicle id="2" x="91.92" y="-23.64" angle="238.51" type="car" speed="8.57" pos="76.93" lane="e3_0" slope="0.00"/>
        <vehicle id="3" x="87.30" y="-33.98" angle="238.51" type="car" speed="6.32" pos="86.28" lane="e3_2" slope="0.00"/>
        <vehicle id="test" x="78.29" y="-32.32" angle="265.23" type="ev" speed="5.95" pos="0.53" lane="e4_1" slope="0.00"/>
    </timestep>
    <timestep time="50.00">
        <vehicle id="0" x="1.39" y="14.56" angle="299.33" type="car" speed="5.55" pos="90.53" lane="e4_0" slope="0.00"/>