<?xml version="1.0" encoding="UTF-8"?>

<!-- generated on 2024-08-09 12:49:18 by Eclipse SUMO GUI Version 1.20.0
<configuration xmlns:xsi="http://www.w3.org/2001/XMLSchema-instance" xsi:noNamespaceSchemaLocation="http://sumo.dlr.de/xsd/sumoConfiguration.xsd">

    <input>
        <net-file value="test.net.xml"/>
        <route-files value="test.rou.xml"/>
    </input>

    <output>
        <fcd-output value="FCD.xml"/>
        <edgedata-output value="edgeOutput.xml"/>
        <lanedata-output value="laneOutput.xml"/>
    </output>

    <traci_server>
        <remote-port value="57178"/>
    </traci_server>

</configuration>
-->

<fcd-export xmlns:xsi="http://www.w3.org/2001/XMLSchema-instance" xsi:noNamespaceSchemaLocation="http://sumo.dlr.de/xsd/fcd_file.xsd">
    <timestep time="0.00">
        <vehicle id="0" x="85.79" y="131.01" angle="115.93" type="car" speed="0.00" pos="5.10" lane="e1_0" slope="0.00"/>
    </timestep>
    <timestep time="1.00">
        <vehicle id="0" x="88.26" y="129.81" angle="115.93" type="car" speed="2.75" pos="7.85" lane="e1_0" slope="0.00"/>
    </timestep>
    <timestep time="2.00">
        <vehicle id="0" x="93.55" y="127.24" angle="115.93" type="car" speed="5.88" pos="13.73" lane="e1_0" slope="0.00"/>
    </timestep>
    <timestep time="3.00">
        <vehicle id="0" x="97.68" y="125.23" angle="115.93" type="car" speed="4.59" pos="18.32" lane="e1_0" slope="0.00"/>
        <vehicle id="1" x="85.79" y="131.01" angle="115.93" type="car" speed="0.00" pos="5.10" lane="e1_0" slope="0.00"/>
    </timestep>
    <timestep time="4.00">
        <vehicle id="0" x="101.97" y="123.14" angle="115.93" type="car" speed="4.77" pos="23.10" lane="e1_0" slope="0.00"/>
        <vehicle id="1" x="86.72" y="130.55" angle="115.93" type="car" speed="1.04" pos="6.14" lane="e1_0" slope="0.00"/>
    </timestep>
    <timestep time="5.00">
        <vehicle id="0" x="107.41" y="120.50" angle="115.93" type="car" speed="6.05" pos="29.15" lane="e1_0" slope="0.00"/>
        <vehicle id="1" x="88.10" y="129.88" angle="115.93" type="car" speed="1.53" pos="7.68" lane="e1_0" slope="0.00"/>
    </timestep>
    <timestep time="6.00">
        <vehicle id="0" x="112.73" y="117.91" angle="115.93" type="car" speed="5.91" pos="35.06" lane="e1_0" slope="0.00"/>
        <vehicle id="1" x="89.93" y="128.99" angle="115.93" type="car" speed="2.03" pos="9.71" lane="e1_0" slope="0.00"/>
    </timestep>
    <timestep time="7.00">
        <vehicle id="0" x="117.99" y="115.35" angle="115.93" type="car" speed="5.85" pos="40.91" lane="e1_0" slope="0.00"/>
        <vehicle id="1" x="94.69" y="126.68" angle="115.93" type="car" speed="5.29" pos="15.00" lane="e1_0" slope="0.00"/>
        <vehicle id="test" x="87.59" y="130.14" angle="115.93" type="ev" speed="0.00" pos="7.10" lane="e1_0" slope="0.00"/>
    </timestep>
    <timestep time="8.00">
        <vehicle id="0" x="122.29" y="113.26" angle="115.93" type="car" speed="4.78" pos="45.69" lane="e1_0" slope="0.00"/>
        <vehicle id="1" x="98.45" y="124.85" angle="115.93" type="car" speed="4.18" pos="19.18" lane="e1_0" slope="0.00"/>
        <vehicle id="test" x="89.35" y="132.84" angle="115.93" type="ev" speed="0.40" pos="7.50" lane="e1_1" slope="0.00"/>
    </timestep>
    <timestep time="9.00">
        <vehicle id="0" x="128.34" y="110.32" angle="115.93" type="car" speed="6.72" pos="52.42" lane="e1_0" slope="0.00"/>
        <vehicle id="1" x="102.60" y="122.83" angle="115.93" type="car" speed="4.62" pos="23.80" lane="e1_0" slope="0.00"/>
        <vehicle id="2" x="85.79" y="131.01" angle="115.93" type="car" speed="0.00" pos="5.10" lane="e1_0" slope="0.00"/>
        <vehicle id="test" x="89.85" y="132.60" angle="115.93" type="ev" speed="0.55" pos="8.06" lane="e1_1" slope="0.00"/>
    </timestep>
    <timestep time="10.00">
        <vehicle id="0" x="134.49" y="107.33" angle="115.93" type="car" speed="6.83" pos="59.25" lane="e1_0" slope="0.00"/>
        <vehicle id="1" x="106.84" y="120.77" angle="115.93" type="car" speed="4.71" pos="28.51" lane="e1_0" slope="0.00"/>
        <vehicle id="2" x="86.36" y="130.73" angle="115.93" type="car" speed="0.64" pos="5.74" lane="e1_0" slope="0.00"/>
        <vehicle id="test" x="90.85" y="132.11" angle="115.93" type="ev" speed="1.11" pos="9.17" lane="e1_1" slope="0.00"/>
    </timestep>
    <timestep time="11.00">
        <vehicle id="0" x="139.18" y="105.05" angle="115.93" type="car" speed="5.22" pos="64.47" lane="e1_0" slope="0.00"/>
        <vehicle id="1" x="109.96" y="119.26" angle="115.93" type="car" speed="3.46" pos="31.97" lane="e1_0" slope="0.00"/>
        <vehicle id="2" x="90.06" y="128.93" angle="115.93" type="car" speed="4.11" pos="9.85" lane="e1_0" slope="0.00"/>
        <vehicle id="test" x="92.23" y="131.44" angle="115.93" type="ev" speed="1.54" pos="10.70" lane="e1_1" slope="0.00"/>
    </timestep>
    <timestep time="12.00">
        <vehicle id="0" x="143.48" y="102.96" angle="115.93" type="car" speed="4.77" pos="69.24" lane="e1_0" slope="0.00"/>
        <vehicle id="1" x="115.12" y="116.75" angle="115.93" type="car" speed="5.74" pos="37.71" lane="e1_0" slope="0.00"/>
        <vehicle id="2" x="94.23" y="126.91" angle="115.93" type="car" speed="4.64" pos="14.49" lane="e1_0" slope="0.00"/>
        <vehicle id="3" x="85.79" y="131.01" angle="115.93" type="car" speed="0.00" pos="5.10" lane="e1_0" slope="0.00"/>
        <vehicle id="test" x="96.64" y="129.29" angle="115.93" type="ev" speed="4.90" pos="15.61" lane="e1_1" slope="0.00"/>
    </timestep>
    <timestep time="13.00">
        <vehicle id="0" x="147.32" y="101.10" angle="115.93" type="car" speed="4.27" pos="73.51" lane="e1_0" slope="0.00"/>
        <vehicle id="1" x="120.58" y="114.09" angle="115.93" type="car" speed="6.08" pos="43.79" lane="e1_0" slope="0.00"/>
        <vehicle id="2" x="97.74" y="125.20" angle="115.93" type="car" speed="3.90" pos="18.39" lane="e1_0" slope="0.00"/>
        <vehicle id="3" x="86.24" y="130.79" angle="115.93" type="car" speed="0.51" pos="5.61" lane="e1_0" slope="0.00"/>
        <vehicle id="test" x="102.88" y="126.26" angle="115.93" type="ev" speed="6.94" pos="22.55" lane="e1_1" slope="0.00"/>
    </timestep>
    <timestep time="14.00">
        <vehicle id="0" x="152.18" y="98.73" angle="115.93" type="car" speed="5.40" pos="78.92" lane="e1_0" slope="0.00"/>
        <vehicle id="1" x="124.81" y="112.04" angle="115.93" type="car" speed="4.70" pos="48.49" lane="e1_0" slope="0.00"/>
        <vehicle id="2" x="100.88" y="123.67" angle="115.93" type="car" speed="3.49" pos="21.89" lane="e1_0" slope="0.00"/>
        <vehicle id="3" x="90.99" y="132.04" angle="115.93" type="car" speed="3.72" pos="9.33" lane="e1_1" slope="0.00"/>
        <vehicle id="test" x="111.43" y="122.10" angle="115.93" type="ev" speed="9.50" pos="32.05" lane="e1_1" slope="0.00"/>
    </timestep>
    <timestep time="15.00">
        <vehicle id="0" x="155.06" y="97.33" angle="115.93" type="car" speed="3.20" pos="82.12" lane="e1_0" slope="0.00"/>
        <vehicle id="1" x="129.36" y="109.83" angle="115.93" type="car" speed="5.06" pos="53.55" lane="e1_0" slope="0.00"/>
        <vehicle id="2" x="104.53" y="121.90" angle="115.93" type="car" speed="4.06" pos="25.94" lane="e1_0" slope="0.00"/>
        <vehicle id="3" x="96.82" y="129.21" angle="115.93" type="car" speed="6.48" pos="15.81" lane="e1_1" slope="0.00"/>
        <vehicle id="test" x="120.16" y="117.86" angle="115.93" type="ev" speed="9.70" pos="41.76" lane="e1_1" slope="0.00"/>
    </timestep>
    <timestep time="16.00">
        <vehicle id="0" x="156.11" y="96.82" angle="115.93" type="car" speed="1.17" pos="83.29" lane="e1_0" slope="0.00"/>
        <vehicle id="1" x="133.73" y="107.70" angle="115.93" type="car" speed="4.86" pos="58.40" lane="e1_0" slope="0.00"/>
        <vehicle id="2" x="109.62" y="119.42" angle="115.93" type="car" speed="5.66" pos="31.60" lane="e1_0" slope="0.00"/>
        <vehicle id="3" x="101.75" y="126.81" angle="115.93" type="car" speed="5.49" pos="21.29" lane="e1_1" slope="0.00"/>
        <vehicle id="test" x="126.90" y="114.58" angle="115.93" type="ev" speed="7.50" pos="49.26" lane="e1_1" slope="0.00"/>
    </timestep>
    <timestep time="17.00">
        <vehicle id="0" x="156.76" y="96.51" angle="115.93" type="car" speed="0.72" pos="84.01" lane="e1_0" slope="0.00"/>
        <vehicle id="1" x="138.39" y="105.44" angle="115.93" type="car" speed="5.18" pos="63.59" lane="e1_0" slope="0.00"/>
        <vehicle id="2" x="113.76" y="117.41" angle="115.93" type="car" speed="4.61" pos="36.21" lane="e1_0" slope="0.00"/>
        <vehicle id="3" x="107.90" y="123.81" angle="115.93" type="car" speed="6.84" pos="28.14" lane="e1_1" slope="0.00"/>
        <vehicle id="test" x="134.86" y="110.71" angle="115.93" type="ev" speed="8.84" pos="58.10" lane="e1_1" slope="0.00"/>
    </timestep>
    <timestep time="18.00">
        <vehicle id="0" x="157.85" y="95.59" angle="120.02" type="car" speed="1.46" pos="1.08" lane=":j2_0_0" slope="0.00"/>
        <vehicle id="1" x="143.03" y="103.18" angle="115.93" type="car" speed="5.17" pos="68.75" lane="e1_0" slope="0.00"/>
        <vehicle id="2" x="118.45" y="115.13" angle="115.93" type="car" speed="5.21" pos="41.41" lane="e1_0" slope="0.00"/>
        <vehicle id="3" x="113.36" y="121.16" angle="115.93" type="car" speed="6.06" pos="34.20" lane="e1_1" slope="0.00"/>
        <vehicle id="test" x="141.84" y="107.31" angle="115.93" type="ev" speed="7.76" pos="65.86" lane="e1_1" slope="0.00"/>
    </timestep>
    <timestep time="19.00">
        <vehicle id="0" x="158.00" y="94.01" angle="138.17" type="car" speed="1.60" pos="0.89" lane="e2_0" slope="0.00"/>
        <vehicle id="1" x="147.01" y="101.25" angle="115.93" type="car" speed="4.42" pos="73.17" lane="e1_0" slope="0.00"/>
        <vehicle id="2" x="121.57" y="113.61" angle="115.93" type="car" speed="3.48" pos="44.89" lane="e1_0" slope="0.00"/>
        <vehicle id="3" x="116.83" y="119.47" angle="115.93" type="car" speed="3.86" pos="38.06" lane="e1_1" slope="0.00"/>
        <vehicle id="test" x="149.57" y="103.55" angle="115.93" type="ev" speed="8.60" pos="74.46" lane="e1_1" slope="0.00"/>
    </timestep>
    <timestep time="20.00">
        <vehicle id="0" x="158.02" y="89.17" angle="179.78" type="car" speed="4.85" pos="5.73" lane="e2_0" slope="0.00"/>
        <vehicle id="1" x="149.01" y="100.28" angle="115.93" type="car" speed="2.22" pos="75.39" lane="e1_0" slope="0.00"/>
        <vehicle id="2" x="124.98" y="111.96" angle="115.93" type="car" speed="3.79" pos="48.68" lane="e1_0" slope="0.00"/>
        <vehicle id="3" x="122.44" y="116.75" angle="115.93" type="car" speed="6.23" pos="44.29" lane="e1_1" slope="0.00"/>
        <vehicle id="test" x="156.28" y="100.29" angle="115.93" type="ev" speed="7.46" pos="81.93" lane="e1_1" slope="0.00"/>
    </timestep>
    <timestep time="21.00">
        <vehicle id="0" x="158.04" y="83.52" angle="179.78" type="car" speed="5.65" pos="11.38" lane="e2_0" slope="0.00"/>
        <vehicle id="1" x="153.27" y="98.20" angle="115.93" type="car" speed="4.74" pos="80.13" lane="e1_0" slope="0.00"/>
        <vehicle id="2" x="130.32" y="109.36" angle="115.93" type="car" speed="5.94" pos="54.62" lane="e1_0" slope="0.00"/>
        <vehicle id="3" x="126.29" y="114.88" angle="115.93" type="car" speed="4.28" pos="48.57" lane="e1_1" slope="0.00"/>
        <vehicle id="test" x="160.91" y="96.59" angle="126.99" type="ev" speed="6.12" pos="3.66" lane=":j2_0_1" slope="0.00"/>
    </timestep>
    <timestep time="22.00">
        <vehicle id="0" x="158.06" y="79.97" angle="179.78" type="car" speed="3.55" pos="14.93" lane="e2_0" slope="0.00"/>
        <vehicle id="1" x="156.64" y="96.56" angle="115.93" type="car" speed="3.74" pos="83.88" lane="e1_0" slope="0.00"/>
        <vehicle id="2" x="136.14" y="106.53" angle="115.93" type="car" speed="6.46" pos="61.08" lane="e1_0" slope="0.00"/>
        <vehicle id="3" x="130.84" y="112.66" angle="115.93" type="car" speed="5.06" pos="53.63" lane="e1_1" slope="0.00"/>
        <vehicle id="test" x="161.22" y="88.79" angle="178.94" type="ev" speed="7.84" pos="6.13" lane="e2_1" slope="0.00"/>
    </timestep>
    <timestep time="23.00">
        <vehicle id="0" x="158.07" y="75.65" angle="179.78" type="car" speed="4.33" pos="19.25" lane="e2_0" slope="0.00"/>
        <vehicle id="1" x="157.83" y="95.63" angle="119.63" type="car" speed="1.54" pos="1.03" lane=":j2_0_0" slope="0.00"/>
        <vehicle id="2" x="140.50" y="104.41" angle="115.93" type="car" speed="4.85" pos="65.93" lane="e1_0" slope="0.00"/>
        <vehicle id="3" x="133.94" y="111.15" angle="115.93" type="car" speed="3.45" pos="57.08" lane="e1_1" slope="0.00"/>
        <vehicle id="test" x="161.26" y="79.29" angle="179.78" type="ev" speed="9.50" pos="15.63" lane="e2_1" slope="0.00"/>
    </timestep>
    <timestep time="24.00">
        <vehicle id="0" x="158.09" y="72.02" angle="179.78" type="car" speed="3.63" pos="22.88" lane="e2_0" slope="0.00"/>
        <vehicle id="1" x="157.91" y="95.43" angle="121.32" type="car" speed="0.22" pos="1.25" lane=":j2_0_0" slope="0.00"/>
        <vehicle id="2" x="145.29" y="102.08" angle="115.93" type="car" speed="5.33" pos="71.26" lane="e1_0" slope="0.00"/>
        <vehicle id="3" x="138.76" y="108.81" angle="115.93" type="car" speed="5.35" pos="62.44" lane="e1_1" slope="0.00"/>
        <vehicle id="test" x="161.29" y="71.99" angle="179.78" type="ev" speed="7.30" pos="22.93" lane="e2_1" slope="0.00"/>
    </timestep>
    <timestep time="25.00">
        <vehicle id="0" x="158.11" y="66.41" angle="179.78" type="car" speed="5.61" pos="28.49" lane="e2_0" slope="0.00"/>
        <vehicle id="1" x="158.00" y="93.67" angle="142.73" type="car" speed="1.77" pos="1.23" lane="e2_0" slope="0.00"/>
        <vehicle id="2" x="148.10" y="100.71" angle="115.93" type="car" speed="3.13" pos="74.39" lane="e1_0" slope="0.00"/>
        <vehicle id="3" x="144.50" y="106.02" angle="115.93" type="car" speed="6.39" pos="68.82" lane="e1_1" slope="0.00"/>
        <vehicle id="test" x="161.32" y="62.45" angle="179.78" type="ev" speed="9.54" pos="32.47" lane="e2_1" slope="0.00"/>
    </timestep>
    <timestep time="26.00">
        <vehicle id="0" x="158.13" y="60.72" angle="179.78" type="car" speed="5.68" pos="34.18" lane="e2_0" slope="0.00"/>
        <vehicle id="1" x="158.01" y="91.80" angle="167.57" type="car" speed="1.87" pos="3.10" lane="e2_0" slope="0.00"/>
        <vehicle id="2" x="149.22" y="100.17" angle="115.93" type="car" speed="1.24" pos="75.63" lane="e1_0" slope="0.00"/>
        <vehicle id="3" x="148.54" y="104.05" angle="115.93" type="car" speed="4.50" pos="73.32" lane="e1_1" slope="0.00"/>
        <vehicle id="test" x="161.36" y="53.72" angle="179.78" type="ev" speed="8.72" pos="41.19" lane="e2_1" slope="0.00"/>
    </timestep>
    <timestep time="27.00">
        <vehicle id="0" x="158.15" y="56.06" angle="179.78" type="car" speed="4.67" pos="38.84" lane="e2_0" slope="0.00"/>
        <vehicle id="1" x="158.03" y="87.70" angle="179.78" type="car" speed="4.11" pos="7.20" lane="e2_0" slope="0.00"/>
        <vehicle id="2" x="150.55" y="99.53" angle="115.93" type="car" speed="1.48" pos="77.10" lane="e1_0" slope="0.00"/>
        <vehicle id="3" x="151.76" y="102.49" angle="115.93" type="car" speed="3.57" pos="76.89" lane="e1_1" slope="0.00"/>
        <vehicle id="test" x="161.38" y="45.90" angle="179.78" type="ev" speed="7.82" pos="49.01" lane="e2_1" slope="0.00"/>
    </timestep>
    <timestep time="28.00">
        <vehicle id="0" x="158.16" y="52.56" angle="179.78" type="car" speed="3.50" pos="42.34" lane="e2_0" slope="0.00"/>
        <vehicle id="1" x="158.04" y="83.58" angle="179.78" type="car" speed="4.11" pos="11.32" lane="e2_0" slope="0.00"/>
        <vehicle id="2" x="154.49" y="97.61" angle="115.93" type="car" speed="4.39" pos="81.49" lane="e1_0" slope="0.00"/>
        <vehicle id="3" x="154.02" y="101.39" angle="115.93" type="car" speed="2.51" pos="79.41" lane="e1_1" slope="0.00"/>
        <vehicle id="test" x="161.42" y="36.02" angle="179.78" type="ev" speed="9.88" pos="58.90" lane="e2_1" slope="0.00"/>
    </timestep>
    <timestep time="29.00">
        <vehicle id="0" x="158.17" y="48.71" angle="179.78" type="car" speed="3.85" pos="46.19" lane="e2_0" slope="0.00"/>
        <vehicle id="1" x="158.06" y="78.91" angle="179.78" type="car" speed="4.68" pos="15.99" lane="e2_0" slope="0.00"/>
        <vehicle id="2" x="156.91" y="96.43" angle="115.93" type="car" speed="2.68" pos="84.18" lane="e1_0" slope="0.00"/>
        <vehicle id="3" x="157.49" y="99.70" angle="115.93" type="car" speed="3.86" pos="83.27" lane="e1_1" slope="0.00"/>
        <vehicle id="test" x="158.25" y="27.86" angle="179.78" type="ev" speed="8.14" pos="67.04" lane="e2_0" slope="0.00"/>
    </timestep>
    <timestep time="30.00">
        <vehicle id="0" x="158.20" y="41.80" angle="179.78" type="car" speed="6.91" pos="53.10" lane="e2_0" slope="0.00"/>
        <vehicle id="1" x="158.08" y="74.23" angle="179.78" type="car" speed="4.68" pos="20.67" lane="e2_0" slope="0.00"/>
        <vehicle id="2" x="157.75" y="95.79" angle="118.41" type="car" speed="1.07" pos="0.86" lane=":j2_0_0" slope="0.00"/>
        <vehicle id="3" x="159.19" y="98.77" angle="117.05" type="car" speed="1.94" pos="0.82" lane=":j2_0_1" slope="0.00"/>
        <vehicle id="test" x="158.28" y="21.28" angle="179.78" type="ev" speed="6.58" pos="73.62" lane="e2_0" slope="0.00"/>
    </timestep>
    <timestep time="31.00">
        <vehicle id="0" x="158.22" y="37.09" angle="179.78" type="car" speed="4.71" pos="57.81" lane="e2_0" slope="0.00"/>
        <vehicle id="1" x="158.10" y="68.75" angle="179.78" type="car" speed="5.48" pos="26.15" lane="e2_0" slope="0.00"/>
        <vehicle id="2" x="157.99" y="94.97" angle="126.13" type="car" speed="0.86" pos="1.72" lane=":j2_0_0" slope="0.00"/>
        <vehicle id="3" x="160.33" y="97.71" angle="122.32" type="car" speed="1.57" pos="2.39" lane=":j2_0_1" slope="0.00"/>
        <vehicle id="test" x="157.60" y="16.61" angle="185.65" type="ev" speed="4.91" pos="1.55" lane=":j3_0_0" slope="0.00"/>
    </timestep>
    <timestep time="32.00">
        <vehicle id="0" x="158.23" y="32.96" angle="179.78" type="car" speed="4.13" pos="61.94" lane="e2_0" slope="0.00"/>
        <vehicle id="1" x="158.12" y="62.35" angle="179.78" type="car" speed="6.40" pos="32.55" lane="e2_0" slope="0.00"/>
        <vehicle id="2" x="158.01" y="93.43" angle="146.02" type="car" speed="1.54" pos="1.47" lane="e2_0" slope="0.00"/>
        <vehicle id="3" x="161.20" y="94.87" angle="150.24" type="car" speed="3.03" pos="0.05" lane="e2_1" slope="0.00"/>
        <vehicle id="test" x="153.78" y="14.25" angle="224.20" type="ev" speed="4.48" pos="4.39" lane="e3_0" slope="0.00"/>
    </timestep>
    <timestep time="33.00">
        <vehicle id="0" x="158.25" y="28.48" angle="179.78" type="car" speed="4.48" pos="66.42" lane="e2_0" slope="0.00"/>
        <vehicle id="1" x="158.14" y="57.24" angle="179.78" type="car" speed="5.11" pos="37.66" lane="e2_0" slope="0.00"/>
        <vehicle id="2" x="158.02" y="89.09" angle="179.78" type="car" speed="4.34" pos="5.81" lane="e2_0" slope="0.00"/>
        <vehicle id="3" x="161.21" y="91.07" angle="178.24" type="car" speed="3.81" pos="3.85" lane="e2_1" slope="0.00"/>
        <vehicle id="test" x="147.86" y="10.62" angle="238.51" type="ev" speed="6.95" pos="11.34" lane="e3_0" slope="0.00"/>
    </timestep>
    <timestep time="34.00">
        <vehicle id="0" x="158.27" y="24.53" angle="179.78" type="car" speed="3.95" pos="70.37" lane="e2_0" slope="0.00"/>
        <vehicle id="1" x="158.16" y="53.54" angle="179.78" type="car" speed="3.70" pos="41.36" lane="e2_0" slope="0.00"/>
        <vehicle id="2" x="158.04" y="85.26" angle="179.78" type="car" speed="3.83" pos="9.64" lane="e2_0" slope="0.00"/>
        <vehicle id="3" x="161.24" y="84.54" angle="179.78" type="car" speed="6.53" pos="10.38" lane="e2_1" slope="0.00"/>
        <vehicle id="test" x="139.52" y="5.52" angle="238.51" type="ev" speed="9.77" pos="21.11" lane="e3_0" slope="0.00"/>
    </timestep>
    <timestep time="35.00">
        <vehicle id="0" x="158.28" y="21.73" angle="179.78" type="car" speed="2.80" pos="73.17" lane="e2_0" slope="0.00"/>
        <vehicle id="1" x="158.18" y="47.78" angle="179.78" type="car" speed="5.76" pos="47.12" lane="e2_0" slope="0.00"/>
        <vehicle id="2" x="158.05" y="80.55" angle="179.78" type="car" speed="4.70" pos="14.35" lane="e2_0" slope="0.00"/>
        <vehicle id="3" x="161.26" y="78.47" angle="179.78" type="car" speed="6.06" pos="16.44" lane="e2_1" slope="0.00"/>
        <vehicle id="test" x="131.59" y="0.66" angle="238.51" type="ev" speed="9.30" pos="30.41" lane="e3_0" slope="0.00"/>
    </timestep>
    <timestep time="36.00">
        <vehicle id="0" x="158.28" y="20.50" angle="179.78" type="car" speed="1.23" pos="74.40" lane="e2_0" slope="0.00"/>
        <vehicle id="1" x="158.20" y="43.08" angle="179.78" type="car" speed="4.70" pos="51.82" lane="e2_0" slope="0.00"/>
        <vehicle id="2" x="158.07" y="76.43" angle="179.78" type="car" speed="4.12" pos="18.47" lane="e2_0" slope="0.00"/>
        <vehicle id="3" x="161.29" y="72.17" angle="179.78" type="car" speed="6.30" pos="22.74" lane="e2_1" slope="0.00"/>
        <vehicle id="test" x="123.79" y="-4.12" angle="238.51" type="ev" speed="9.16" pos="39.57" lane="e3_0" slope="0.00"/>
    </timestep>
    <timestep time="37.00">
        <vehicle id="0" x="158.29" y="19.24" angle="179.78" type="car" speed="1.26" pos="75.66" lane="e2_0" slope="0.00"/>
        <vehicle id="1" x="158.21" y="37.89" angle="179.78" type="car" speed="5.19" pos="57.01" lane="e2_0" slope="0.00"/>
        <vehicle id="2" x="158.09" y="70.24" angle="179.78" type="car" speed="6.19" pos="24.66" lane="e2_0" slope="0.00"/>
        <vehicle id="3" x="161.31" y="66.88" angle="179.78" type="car" speed="5.29" pos="28.04" lane="e2_1" slope="0.00"/>
        <vehicle id="test" x="115.87" y="-8.97" angle="238.51" type="ev" speed="9.28" pos="48.85" lane="e3_0" slope="0.00"/>
    </timestep>
    <timestep time="38.00">
        <vehicle id="0" x="158.29" y="17.97" angle="179.78" type="car" speed="1.28" pos="76.93" lane="e2_0" slope="0.00"/>
        <vehicle id="1" x="161.43" y="34.90" angle="179.78" type="car" speed="2.99" pos="60.01" lane="e2_1" slope="0.00"/>
        <vehicle id="2" x="158.11" y="66.25" angle="179.78" type="car" speed="3.99" pos="28.65" lane="e2_0" slope="0.00"/>
        <vehicle id="3" x="161.32" y="63.03" angle="179.78" type="car" speed="3.86" pos="31.89" lane="e2_1" slope="0.00"/>
        <vehicle id="test" x="109.15" y="-13.09" angle="238.51" type="ev" speed="7.89" pos="56.73" lane="e3_0" slope="0.00"/>
    </timestep>
    <timestep time="39.00">
        <vehicle id="0" x="157.76" y="16.73" angle="186.07" type="car" speed="1.39" pos="1.35" lane=":j3_0_0" slope="0.00"/>
        <vehicle id="1" x="161.45" y="28.76" angle="179.78" type="car" speed="6.14" pos="66.15" lane="e2_1" slope="0.00"/>
        <vehicle id="2" x="158.12" y="62.64" angle="179.78" type="car" speed="3.61" pos="32.26" lane="e2_0" slope="0.00"/>
        <vehicle id="3" x="161.35" y="56.22" angle="179.78" type="car" speed="6.80" pos="38.69" lane="e2_1" slope="0.00"/>
        <vehicle id="test" x="103.47" y="-16.57" angle="238.51" type="ev" speed="6.66" pos="63.39" lane="e3_0" slope="0.00"/>
    </timestep>
    <timestep time="40.00">
        <vehicle id="0" x="157.08" y="16.27" angle="195.04" type="car" speed="0.83" pos="0.53" lane="e3_0" slope="0.00"/>
        <vehicle id="1" x="161.46" y="24.82" angle="179.78" type="car" speed="3.94" pos="70.09" lane="e2_1" slope="0.00"/>
        <vehicle id="2" x="158.14" y="57.50" angle="179.78" type="car" speed="5.15" pos="37.40" lane="e2_0" slope="0.00"/>
        <vehicle id="3" x="161.37" y="50.74" angle="179.78" type="car" speed="5.48" pos="44.18" lane="e2_1" slope="0.00"/>
        <vehicle id="test" x="96.91" y="-20.58" angle="238.51" type="ev" speed="7.69" pos="71.08" lane="e3_0" slope="0.00"/>
    </timestep>
    <timestep time="41.00">
        <vehicle id="0" x="154.45" y="14.67" angle="231.72" type="car" speed="3.08" pos="3.61" lane="e3_0" slope="0.00"/>
        <vehicle id="1" x="161.47" y="22.43" angle="179.78" type="car" speed="2.39" pos="72.48" lane="e2_1" slope="0.00"/>
        <vehicle id="2" x="158.16" y="52.67" angle="179.78" type="car" speed="4.83" pos="42.23" lane="e2_0" slope="0.00"/>
        <vehicle id="3" x="161.39" y="45.07" angle="179.78" type="car" speed="5.66" pos="49.84" lane="e2_1" slope="0.00"/>
        <vehicle id="test" x="91.30" y="-24.02" angle="238.51" type="ev" speed="6.58" pos="77.67" lane="e3_0" slope="0.00"/>
    </timestep>
    <timestep time="42.00">
        <vehicle id="0" x="149.90" y="11.88" angle="238.51" type="car" speed="5.34" pos="8.95" lane="e3_0" slope="0.00"/>
        <vehicle id="1" x="161.48" y="19.30" angle="179.78" type="car" speed="3.13" pos="75.61" lane="e2_1" slope="0.00"/>
        <vehicle id="2" x="158.18" y="47.77" angle="179.78" type="car" speed="4.90" pos="47.13" lane="e2_0" slope="0.00"/>
        <vehicle id="3" x="161.41" y="39.68" angle="179.78" type="car" speed="5.40" pos="55.23" lane="e2_1" slope="0.00"/>
        <vehicle id="test" x="85.11" y="-27.81" angle="238.51" type="ev" speed="7.25" pos="84.92" lane="e3_0" slope="0.00"/>
    </timestep>
    <timestep time="43.00">
        <vehicle id="0" x="145.94" y="9.45" angle="238.51" type="car" speed="4.64" pos="13.59" lane="e3_0" slope="0.00"/>
        <vehicle id="1" x="161.49" y="18.07" angle="179.78" type="car" speed="1.22" pos="76.84" lane="e2_1" slope="0.00"/>
        <vehicle id="2" x="158.19" y="44.21" angle="179.78" type="car" speed="3.56" pos="50.69" lane="e2_0" slope="0.00"/>
        <vehicle id="3" x="161.42" y="36.27" angle="179.78" type="car" speed="3.40" pos="58.64" lane="e2_1" slope="0.00"/>
        <vehicle id="test" x="80.66" y="-29.94" angle="242.79" type="ev" speed="5.05" pos="1.33" lane=":j4_0_0" slope="0.00"/>
    </timestep>
    <timestep time="44.00">
        <vehicle id="0" x="141.90" y="6.98" angle="238.51" type="car" speed="4.74" pos="18.33" lane="e3_0" slope="0.00"/>
        <vehicle id="1" x="161.37" y="16.85" angle="181.19" type="car" speed="1.23" pos="1.08" lane=":j3_0_1" slope="0.00"/>
        <vehicle id="2" x="158.21" y="39.33" angle="179.78" type="car" speed="4.88" pos="55.57" lane="e2_0" slope="0.00"/>
        <vehicle id="3" x="161.44" y="30.98" angle="179.78" type="car" speed="5.29" pos="63.93" lane="e2_1" slope="0.00"/>
        <vehicle id="test" x="75.62" y="-27.15" angle="293.06" type="ev" speed="5.77" pos="5.39" lane="e4_0" slope="0.00"/>
    </timestep>
    <timestep time="45.00">
        <vehicle id="0" x="138.21" y="4.72" angle="238.51" type="car" speed="4.33" pos="22.65" lane="e3_0" slope="0.00"/>
        <vehicle id="1" x="159.94" y="14.40" angle="198.74" type="car" speed="2.90" pos="3.98" lane=":j3_0_1" slope="0.00"/>
        <vehicle id="2" x="158.23" y="33.40" angle="179.78" type="car" speed="5.93" pos="61.50" lane="e2_0" slope="0.00"/>
        <vehicle id="3" x="161.45" y="27.89" angle="179.78" type="car" speed="3.09" pos="67.02" lane="e2_1" slope="0.00"/>
        <vehicle id="test" x="69.50" y="-23.71" angle="299.33" type="ev" speed="7.01" pos="12.41" lane="e4_0" slope="0.00"/>
    </timestep>
    <timestep time="46.00">
        <vehicle id="0" x="132.38" y="1.14" angle="238.51" type="car" speed="6.84" pos="29.49" lane="e3_0" slope="0.00"/>
        <vehicle id="1" x="158.84" y="13.60" angle="213.28" type="car" speed="1.37" pos="0.42" lane="e3_1" slope="0.00"/>
        <vehicle id="2" x="158.26" y="27.12" angle="179.78" type="car" speed="6.28" pos="67.78" lane="e2_0" slope="0.00"/>
        <vehicle id="3" x="161.46" y="26.76" angle="179.78" type="car" speed="1.14" pos="68.16" lane="e2_1" slope="0.00"/>
        <vehicle id="test" x="61.07" y="-18.98" angle="299.33" type="ev" speed="9.67" pos="22.08" lane="e4_0" slope="0.00"/>
    </timestep>
    <timestep time="47.00">
        <vehicle id="0" x="127.43" y="-1.89" angle="238.51" type="car" speed="5.80" pos="35.29" lane="e3_0" slope="0.00"/>
        <vehicle id="1" x="156.55" y="12.20" angle="234.22" type="car" speed="2.69" pos="3.11" lane="e3_1" slope="0.00"/>
        <vehicle id="2" x="158.27" y="23.04" angle="179.78" type="car" speed="4.08" pos="71.86" lane="e2_0" slope="0.00"/>
        <vehicle id="3" x="161.46" y="25.39" angle="179.78" type="car" speed="1.37" pos="69.52" lane="e2_1" slope="0.00"/>
        <vehicle id="test" x="53.87" y="-14.93" angle="299.33" type="ev" speed="8.27" pos="30.34" lane="e4_0" slope="0.00"/>
    </timestep>
    <timestep time="48.00">
        <vehicle id="0" x="124.15" y="-3.89" angle="238.51" type="car" speed="3.84" pos="39.14" lane="e3_0" slope="0.00"/>
        <vehicle id="1" x="152.72" y="9.85" angle="238.51" type="car" speed="4.50" pos="7.61" lane="e3_1" slope="0.00"/>
        <vehicle id="2" x="158.28" y="21.15" angle="179.78" type="car" speed="1.88" pos="73.75" lane="e2_0" slope="0.00"/>
        <vehicle id="3" x="161.48" y="21.59" angle="179.78" type="car" speed="3.80" pos="73.32" lane="e2_1" slope="0.00"/>
        <vehicle id="test" x="45.54" y="-10.25" angle="299.33" type="ev" speed="9.55" pos="39.89" lane="e4_0" slope="0.00"/>
    </timestep>
    <timestep time="49.00">
        <vehicle id="0" x="118.31" y="-7.48" angle="238.51" type="car" speed="6.86" pos="45.99" lane="e3_0" slope="0.00"/>
        <vehicle id="1" x="148.80" y="7.45" angle="238.51" type="car" speed="4.59" pos="12.19" lane="e3_1" slope="0.00"/>
        <vehicle id="2" x="158.28" y="21.13" angle="179.78" type="car" speed="0.03" pos="73.77" lane="e2_0" slope="0.00"/>
        <vehicle id="3" x="161.48" y="19.99" angle="179.78" type="car" speed="1.60" pos="74.92" lane="e2_1" slope="0.00"/>