<?xml version="1.0" encoding="UTF-8"?>

<!-- generated on 2024-08-09 16:42:55 by Eclipse SUMO GUI Version 1.20.0
<configuration xmlns:xsi="http://www.w3.org/2001/XMLSchema-instance" xsi:noNamespaceSchemaLocation="http://sumo.dlr.de/xsd/sumoConfiguration.xsd">

    <input>
        <net-file value="test.net.xml"/>
        <route-files value="test.rou.xml"/>
    </input>

    <output>
        <fcd-output value="FCD.xml"/>
        <edgedata-output value="edgeOutput.xml"/>
        <lanedata-output value="laneOutput.xml"/>
    </output>

    <traci_server>
        <remote-port value="62705"/>
    </traci_server>

</configuration>
-->

<fcd-export xmlns:xsi="http://www.w3.org/2001/XMLSchema-instance" xsi:noNamespaceSchemaLocation="http://sumo.dlr.de/xsd/fcd_file.xsd">
    <timestep time="0.00">
        <vehicle id="0" x="85.79" y="131.01" angle="115.93" type="car" speed="0.00" pos="5.10" lane="e1_0" slope="0.00"/>
    </timestep>
    <timestep time="1.00">
        <vehicle id="0" x="88.26" y="129.81" angle="115.93" type="car" speed="2.75" pos="7.85" lane="e1_0" slope="0.00"/>
    </timestep>
    <timestep time="2.00">
        <vehicle id="0" x="93.55" y="127.24" angle="115.93" type="car" speed="5.88" pos="13.73" lane="e1_0" slope="0.00"/>
    </timestep>
    <timestep time="3.00">
        <vehicle id="0" x="99.87" y="124.16" angle="115.93" type="car" speed="7.03" pos="20.76" lane="e1_0" slope="0.00"/>
        <vehicle id="1" x="85.79" y="131.01" angle="115.93" type="car" speed="0.00" pos="5.10" lane="e1_0" slope="0.00"/>
    </timestep>
    <timestep time="4.00">
        <vehicle id="0" x="106.91" y="120.74" angle="115.93" type="car" speed="7.83" pos="28.59" lane="e1_0" slope="0.00"/>
        <vehicle id="1" x="86.72" y="130.55" angle="115.93" type="car" speed="1.04" pos="6.14" lane="e1_0" slope="0.00"/>
    </timestep>
    <timestep time="5.00">
        <vehicle id="0" x="115.10" y="116.76" angle="115.93" type="car" speed="9.11" pos="37.69" lane="e1_0" slope="0.00"/>
        <vehicle id="1" x="88.10" y="129.88" angle="115.93" type="car" speed="1.53" pos="7.68" lane="e1_0" slope="0.00"/>
    </timestep>
    <timestep time="6.00">
        <vehicle id="0" x="123.16" y="112.84" angle="115.93" type="car" speed="8.96" pos="46.66" lane="e1_0" slope="0.00"/>
        <vehicle id="1" x="89.93" y="128.99" angle="115.93" type="car" speed="2.03" pos="9.71" lane="e1_0" slope="0.00"/>
    </timestep>
    <timestep time="7.00">
        <vehicle id="0" x="131.18" y="108.94" angle="115.93" type="car" speed="8.91" pos="55.57" lane="e1_0" slope="0.00"/>
        <vehicle id="1" x="94.69" y="126.68" angle="115.93" type="car" speed="5.29" pos="15.00" lane="e1_0" slope="0.00"/>
        <vehicle id="test" x="87.59" y="130.14" angle="115.93" type="ev" speed="0.00" pos="7.10" lane="e1_0" slope="0.00"/>
    </timestep>
    <timestep time="8.00">
        <vehicle id="0" x="138.22" y="105.52" angle="115.93" type="car" speed="7.84" pos="63.40" lane="e1_0" slope="0.00"/>
        <vehicle id="1" x="100.11" y="124.05" angle="115.93" type="car" speed="6.02" pos="21.02" lane="e1_0" slope="0.00"/>
        <vehicle id="test" x="87.95" y="129.96" angle="115.93" type="ev" speed="0.40" pos="7.50" lane="e1_0" slope="0.00"/>
    </timestep>
    <timestep time="9.00">
        <vehicle id="0" x="146.30" y="101.59" angle="115.93" type="car" speed="8.97" pos="72.38" lane="e1_0" slope="0.00"/>
        <vehicle id="1" x="106.58" y="120.90" angle="115.93" type="car" speed="7.20" pos="28.22" lane="e1_0" slope="0.00"/>
        <vehicle id="test" x="91.36" y="128.30" angle="115.93" type="ev" speed="3.79" pos="11.30" lane="e1_0" slope="0.00"/>
    </timestep>
    <timestep time="10.00">
        <vehicle id="0" x="152.39" y="98.63" angle="115.93" type="car" speed="6.77" pos="79.15" lane="e1_0" slope="0.00"/>
        <vehicle id="1" x="113.00" y="117.78" angle="115.93" type="car" speed="7.14" pos="35.36" lane="e1_0" slope="0.00"/>
        <vehicle id="2" x="85.79" y="131.01" angle="115.93" type="car" speed="0.00" pos="5.10" lane="e1_0" slope="0.00"/>
        <vehicle id="test" x="96.37" y="125.86" angle="115.93" type="ev" speed="5.57" pos="16.87" lane="e1_0" slope="0.00"/>
    </timestep>
    <timestep time="11.00">
        <vehicle id="0" x="156.50" y="96.63" angle="115.93" type="car" speed="4.57" pos="83.73" lane="e1_0" slope="0.00"/>
        <vehicle id="1" x="121.97" y="113.42" angle="115.93" type="car" speed="9.97" pos="45.33" lane="e1_0" slope="0.00"/>
        <vehicle id="2" x="87.85" y="130.01" angle="115.93" type="car" speed="2.30" pos="7.40" lane="e1_0" slope="0.00"/>
        <vehicle id="test" x="101.71" y="123.27" angle="115.93" type="ev" speed="5.93" pos="22.80" lane="e1_0" slope="0.00"/>
    </timestep>
    <timestep time="12.00">
        <vehicle id="0" x="157.99" y="94.98" angle="126.04" type="car" speed="2.37" pos="1.71" lane=":j2_0_0" slope="0.00"/>
        <vehicle id="1" x="128.95" y="110.02" angle="115.93" type="car" speed="7.77" pos="53.09" lane="e1_0" slope="0.00"/>
        <vehicle id="2" x="90.33" y="128.80" angle="115.93" type="car" speed="2.76" pos="10.15" lane="e1_0" slope="0.00"/>
        <vehicle id="test" x="110.81" y="122.40" angle="115.93" type="ev" speed="8.57" pos="31.37" lane="e1_1" slope="0.00"/>
    </timestep>
    <timestep time="13.00">
        <vehicle id="0" x="158.01" y="91.45" angle="171.48" type="car" speed="3.53" pos="3.45" lane="e2_0" slope="0.00"/>
        <vehicle id="1" x="134.85" y="107.16" angle="115.93" type="car" speed="6.56" pos="59.66" lane="e1_0" slope="0.00"/>
        <vehicle id="2" x="95.06" y="126.50" angle="115.93" type="car" speed="5.26" pos="15.41" lane="e1_0" slope="0.00"/>
        <vehicle id="3" x="85.79" y="131.01" angle="115.93" type="car" speed="0.00" pos="5.10" lane="e1_0" slope="0.00"/>
        <vehicle id="test" x="116.79" y="119.49" angle="115.93" type="ev" speed="6.65" pos="38.02" lane="e1_1" slope="0.00"/>
    </timestep>
    <timestep time="14.00">
        <vehicle id="0" x="158.04" y="84.67" angle="179.78" type="car" speed="6.78" pos="10.23" lane="e2_0" slope="0.00"/>
        <vehicle id="1" x="141.07" y="104.13" angle="115.93" type="car" speed="6.92" pos="66.57" lane="e1_0" slope="0.00"/>
        <vehicle id="2" x="99.84" y="124.18" angle="115.93" type="car" speed="5.31" pos="20.73" lane="e1_0" slope="0.00"/>
        <vehicle id="3" x="88.67" y="129.61" angle="115.93" type="car" speed="3.21" pos="8.31" lane="e1_0" slope="0.00"/>
        <vehicle id="test" x="123.14" y="116.41" angle="115.93" type="ev" speed="7.06" pos="45.07" lane="e1_1" slope="0.00"/>
    </timestep>
    <timestep time="15.00">
        <vehicle id="0" x="158.07" y="75.97" angle="179.78" type="car" speed="8.70" pos="18.93" lane="e2_0" slope="0.00"/>
        <vehicle id="1" x="146.73" y="101.38" angle="115.93" type="car" speed="6.29" pos="72.87" lane="e1_0" slope="0.00"/>
        <vehicle id="2" x="106.07" y="121.15" angle="115.93" type="car" speed="6.92" pos="27.65" lane="e1_0" slope="0.00"/>
        <vehicle id="3" x="90.74" y="128.60" angle="115.93" type="car" speed="2.29" pos="10.60" lane="e1_0" slope="0.00"/>
        <vehicle id="test" x="129.37" y="113.38" angle="115.93" type="ev" speed="6.93" pos="52.00" lane="e1_1" slope="0.00"/>
    </timestep>
    <timestep time="16.00">
        <vehicle id="0" x="158.10" y="69.37" angle="179.78" type="car" speed="6.60" pos="25.53" lane="e2_0" slope="0.00"/>
        <vehicle id="1" x="151.39" y="99.12" angle="115.93" type="car" speed="5.17" pos="78.04" lane="e1_0" slope="0.00"/>
        <vehicle id="2" x="113.18" y="117.69" angle="115.93" type="car" speed="7.91" pos="35.56" lane="e1_0" slope="0.00"/>
        <vehicle id="3" x="94.79" y="126.63" angle="115.93" type="car" speed="4.50" pos="15.11" lane="e1_0" slope="0.00"/>
        <vehicle id="test" x="138.24" y="109.06" angle="115.93" type="ev" speed="9.87" pos="61.87" lane="e1_1" slope="0.00"/>
    </timestep>
    <timestep time="17.00">
        <vehicle id="0" x="158.12" y="61.98" angle="179.78" type="car" speed="7.38" pos="32.92" lane="e2_0" slope="0.00"/>
        <vehicle id="1" x="154.72" y="97.50" angle="115.93" type="car" speed="3.70" pos="81.74" lane="e1_0" slope="0.00"/>
        <vehicle id="2" x="120.59" y="114.09" angle="115.93" type="car" speed="8.24" pos="43.80" lane="e1_0" slope="0.00"/>
        <vehicle id="3" x="99.88" y="124.16" angle="115.93" type="car" speed="5.66" pos="20.77" lane="e1_0" slope="0.00"/>
        <vehicle id="test" x="145.92" y="105.33" angle="115.93" type="ev" speed="8.54" pos="70.41" lane="e1_1" slope="0.00"/>
    </timestep>
    <timestep time="18.00">
        <vehicle id="0" x="158.15" y="55.30" angle="179.78" type="car" speed="6.68" pos="39.60" lane="e2_0" slope="0.00"/>
        <vehicle id="1" x="157.23" y="96.25" angle="116.17" type="car" speed="2.81" pos="0.16" lane=":j2_0_0" slope="0.00"/>
        <vehicle id="2" x="128.38" y="110.30" angle="115.93" type="car" speed="8.66" pos="52.45" lane="e1_0" slope="0.00"/>
        <vehicle id="3" x="106.56" y="120.91" angle="115.93" type="car" speed="7.43" pos="28.20" lane="e1_0" slope="0.00"/>
        <vehicle id="test" x="153.66" y="101.56" angle="115.93" type="ev" speed="8.60" pos="79.01" lane="e1_1" slope="0.00"/>
    </timestep>
    <timestep time="19.00">
        <vehicle id="0" x="158.18" y="46.63" angle="179.78" type="car" speed="8.67" pos="48.27" lane="e2_0" slope="0.00"/>
        <vehicle id="1" x="157.70" y="95.84" angle="118.07" type="car" speed="0.62" pos="0.78" lane=":j2_0_0" slope="0.00"/>
        <vehicle id="2" x="136.10" y="106.55" angle="115.93" type="car" speed="8.59" pos="61.04" lane="e1_0" slope="0.00"/>
        <vehicle id="3" x="112.43" y="118.06" angle="115.93" type="car" speed="6.53" pos="34.73" lane="e1_0" slope="0.00"/>
        <vehicle id="test" x="159.53" y="98.55" angle="117.13" type="ev" speed="6.60" pos="1.22" lane=":j2_0_1" slope="0.00"/>
    </timestep>
    <timestep time="20.00">
        <vehicle id="0" x="158.21" y="37.90" angle="179.78" type="car" speed="8.74" pos="57.00" lane="e2_0" slope="0.00"/>
        <vehicle id="1" x="158.01" y="92.56" angle="157.83" type="car" speed="3.34" pos="2.34" lane="e2_0" slope="0.00"/>
        <vehicle id="2" x="143.24" y="106.63" angle="115.93" type="car" speed="6.39" pos="67.43" lane="e1_1" slope="0.00"/>
        <vehicle id="3" x="118.59" y="115.06" angle="115.93" type="car" speed="6.84" pos="41.57" lane="e1_0" slope="0.00"/>
        <vehicle id="test" x="161.20" y="93.70" angle="151.57" type="ev" speed="5.36" pos="1.21" lane="e2_1" slope="0.00"/>
    </timestep>
    <timestep time="21.00">
        <vehicle id="0" x="158.24" y="31.36" angle="179.78" type="car" speed="6.54" pos="63.54" lane="e2_0" slope="0.00"/>
        <vehicle id="1" x="158.03" y="88.00" angle="179.78" type="car" speed="4.57" pos="6.90" lane="e2_0" slope="0.00"/>
        <vehicle id="2" x="149.88" y="103.40" angle="115.93" type="car" speed="7.38" pos="74.81" lane="e1_1" slope="0.00"/>
        <vehicle id="3" x="126.81" y="111.06" angle="115.93" type="car" speed="9.14" pos="50.71" lane="e1_0" slope="0.00"/>
        <vehicle id="test" x="161.24" y="85.34" angle="179.78" type="ev" speed="8.36" pos="9.58" lane="e2_1" slope="0.00"/>
    </timestep>
    <timestep time="22.00">
        <vehicle id="0" x="158.26" y="24.81" angle="179.78" type="car" speed="6.55" pos="70.09" lane="e2_0" slope="0.00"/>
        <vehicle id="1" x="158.04" y="83.38" angle="179.78" type="car" speed="4.62" pos="11.52" lane="e2_0" slope="0.00"/>
        <vehicle id="2" x="156.03" y="100.41" angle="115.93" type="car" speed="6.83" pos="81.64" lane="e1_1" slope="0.00"/>
        <vehicle id="3" x="134.90" y="107.13" angle="115.93" type="car" speed="9.00" pos="59.71" lane="e1_0" slope="0.00"/>
        <vehicle id="test" x="161.26" y="78.42" angle="179.78" type="ev" speed="6.92" pos="16.50" lane="e2_1" slope="0.00"/>
    </timestep>
    <timestep time="23.00">
        <vehicle id="0" x="158.28" y="20.46" angle="179.78" type="car" speed="4.35" pos="74.44" lane="e2_0" slope="0.00"/>
        <vehicle id="1" x="158.06" y="78.35" angle="179.78" type="car" speed="5.03" pos="16.55" lane="e2_0" slope="0.00"/>
        <vehicle id="2" x="161.12" y="95.56" angle="142.75" type="car" speed="7.48" pos="4.73" lane=":j2_0_1" slope="0.00"/>
        <vehicle id="3" x="143.49" y="102.96" angle="115.93" type="car" speed="9.55" pos="69.26" lane="e1_0" slope="0.00"/>
        <vehicle id="test" x="161.30" y="68.87" angle="179.78" type="ev" speed="9.54" pos="26.04" lane="e2_1" slope="0.00"/>
    </timestep>
    <timestep time="24.00">
        <vehicle id="0" x="158.29" y="18.30" angle="179.78" type="car" speed="2.15" pos="76.60" lane="e2_0" slope="0.00"/>
        <vehicle id="1" x="158.09" y="71.49" angle="179.78" type="car" speed="6.86" pos="23.41" lane="e2_0" slope="0.00"/>
        <vehicle id="2" x="161.23" y="87.30" angle="179.78" type="car" speed="8.26" pos="7.62" lane="e2_1" slope="0.00"/>
        <vehicle id="3" x="150.85" y="99.38" angle="115.93" type="car" speed="8.18" pos="77.44" lane="e1_0" slope="0.00"/>
        <vehicle id="test" x="161.33" y="60.15" angle="179.78" type="ev" speed="8.72" pos="34.76" lane="e2_1" slope="0.00"/>
    </timestep>
    <timestep time="25.00">
        <vehicle id="0" x="155.64" y="15.39" angle="215.73" type="car" speed="4.24" pos="2.21" lane="e3_0" slope="0.00"/>
        <vehicle id="1" x="158.12" y="63.75" angle="179.78" type="car" speed="7.74" pos="31.15" lane="e2_0" slope="0.00"/>
        <vehicle id="2" x="161.27" y="77.42" angle="179.78" type="car" speed="9.88" pos="17.50" lane="e2_1" slope="0.00"/>
        <vehicle id="3" x="156.23" y="96.76" angle="115.93" type="car" speed="5.98" pos="83.43" lane="e1_0" slope="0.00"/>
        <vehicle id="test" x="161.36" y="52.33" angle="179.78" type="ev" speed="7.82" pos="42.59" lane="e2_1" slope="0.00"/>
    </timestep>
    <timestep time="26.00">
        <vehicle id="0" x="149.93" y="11.89" angle="238.51" type="car" speed="6.70" pos="8.91" lane="e3_0" slope="0.00"/>
        <vehicle id="1" x="158.15" y="54.89" angle="179.78" type="car" speed="8.87" pos="40.01" lane="e2_0" slope="0.00"/>
        <vehicle id="2" x="161.29" y="69.73" angle="179.78" type="car" speed="7.68" pos="25.18" lane="e2_1" slope="0.00"/>
        <vehicle id="3" x="158.00" y="93.87" angle="140.10" type="car" speed="3.78" pos="1.03" lane="e2_0" slope="0.00"/>
        <vehicle id="test" x="161.39" y="44.19" angle="179.78" type="ev" speed="8.14" pos="50.73" lane="e2_1" slope="0.00"/>
    </timestep>
    <timestep time="27.00">
        <vehicle id="0" x="141.60" y="6.79" angle="238.51" type="car" speed="9.77" pos="18.68" lane="e3_0" slope="0.00"/>
        <vehicle id="1" x="158.18" y="47.14" angle="179.78" type="car" speed="7.75" pos="47.76" lane="e2_0" slope="0.00"/>
        <vehicle id="2" x="161.33" y="60.76" angle="179.78" type="car" speed="8.97" pos="34.15" lane="e2_1" slope="0.00"/>
        <vehicle id="3" x="158.03" y="88.05" angle="179.78" type="car" speed="5.82" pos="6.85" lane="e2_0" slope="0.00"/>
        <vehicle id="test" x="161.43" y="34.60" angle="179.78" type="ev" speed="9.58" pos="60.31" lane="e2_1" slope="0.00"/>
    </timestep>
    <timestep time="28.00">
        <vehicle id="0" x="133.67" y="1.93" angle="238.51" type="car" speed="9.30" pos="27.98" lane="e3_0" slope="0.00"/>
        <vehicle id="1" x="158.21" y="39.92" angle="179.78" type="car" speed="7.22" pos="54.98" lane="e2_0" slope="0.00"/>
        <vehicle id="2" x="161.36" y="52.41" angle="179.78" type="car" speed="8.35" pos="42.50" lane="e2_1" slope="0.00"/>
        <vehicle id="3" x="158.06" y="79.28" angle="179.78" type="car" speed="8.77" pos="15.62" lane="e2_0" slope="0.00"/>
        <vehicle id="test" x="161.46" y="25.81" angle="179.78" type="ev" speed="8.79" pos="69.10" lane="e2_1" slope="0.00"/>
    </timestep>
    <timestep time="29.00">
        <vehicle id="0" x="125.86" y="-2.85" angle="238.51" type="car" speed="9.16" pos="37.14" lane="e3_0" slope="0.00"/>
        <vehicle id="1" x="158.23" y="32.70" angle="179.78" type="car" speed="7.23" pos="62.20" lane="e2_0" slope="0.00"/>
        <vehicle id="2" x="164.60" y="42.78" angle="179.78" type="car" speed="9.65" pos="52.15" lane="e2_2" slope="0.00"/>
        <vehicle id="3" x="158.09" y="71.12" angle="179.78" type="car" speed="8.16" pos="23.78" lane="e2_0" slope="0.00"/>
        <vehicle id="test" x="161.49" y="19.22" angle="179.78" type="ev" speed="6.59" pos="75.69" lane="e2_1" slope="0.00"/>
    </timestep>
    <timestep time="30.00">
        <vehicle id="0" x="117.95" y="-7.70" angle="238.51" type="car" speed="9.28" pos="46.42" lane="e3_0" slope="0.00"/>
        <vehicle id="1" x="158.26" y="25.21" angle="179.78" type="car" speed="7.48" pos="69.69" lane="e2_0" slope="0.00"/>
        <vehicle id="2" x="164.63" y="32.99" angle="179.78" type="car" speed="9.79" pos="61.94" lane="e2_2" slope="0.00"/>
        <vehicle id="3" x="158.12" y="63.54" angle="179.78" type="car" speed="7.57" pos="31.36" lane="e2_0" slope="0.00"/>
        <vehicle id="test" x="158.68" y="13.50" angle="205.49" type="ev" speed="6.83" pos="0.61" lane="e3_1" slope="0.00"/>
    </timestep>
    <timestep time="31.00">
        <vehicle id="0" x="111.22" y="-11.82" angle="238.51" type="car" speed="7.89" pos="54.30" lane="e3_0" slope="0.00"/>
        <vehicle id="1" x="158.28" y="19.93" angle="179.78" type="car" speed="5.28" pos="74.97" lane="e2_0" slope="0.00"/>
        <vehicle id="2" x="164.66" y="25.40" angle="179.78" type="car" speed="7.59" pos="69.53" lane="e2_2" slope="0.00"/>
        <vehicle id="3" x="158.14" y="56.65" angle="179.78" type="car" speed="6.89" pos="38.25" lane="e2_0" slope="0.00"/>
        <vehicle id="test" x="152.01" y="9.42" angle="238.51" type="ev" speed="7.82" pos="8.43" lane="e3_1" slope="0.00"/>
    </timestep>
    <timestep time="32.00">
        <vehicle id="0" x="105.54" y="-15.30" angle="238.51" type="car" speed="6.66" pos="60.96" lane="e3_0" slope="0.00"/>
        <vehicle id="1" x="157.95" y="16.93" angle="183.81" type="car" speed="3.08" pos="1.07" lane=":j3_0_0" slope="0.00"/>
        <vehicle id="2" x="164.69" y="18.23" angle="179.78" type="car" speed="7.17" pos="76.70" lane="e2_2" slope="0.00"/>
        <vehicle id="3" x="158.18" y="47.84" angle="179.78" type="car" speed="8.81" pos="47.06" lane="e2_0" slope="0.00"/>
        <vehicle id="test" x="143.26" y="7.81" angle="238.51" type="ev" speed="8.31" pos="16.74" lane="e3_0" slope="0.00"/>
    </timestep>
    <timestep time="33.00">
        <vehicle id="0" x="98.98" y="-19.31" angle="238.51" type="car" speed="7.69" pos="68.65" lane="e3_0" slope="0.00"/>
        <vehicle id="1" x="156.12" y="15.69" angle="208.79" type="car" speed="2.22" pos="1.66" lane="e3_0" slope="0.00"/>
        <vehicle id="2" x="159.75" y="10.41" angle="229.11" type="car" speed="9.80" pos="1.31" lane="e3_2" slope="0.00"/>
        <vehicle id="3" x="161.40" y="40.82" angle="179.78" type="car" speed="7.04" pos="54.09" lane="e2_1" slope="0.00"/>
        <vehicle id="test" x="137.54" y="4.31" angle="238.51" type="ev" speed="6.70" pos="23.44" lane="e3_0" slope="0.00"/>
    </timestep>
    <timestep time="34.00">
        <vehicle id="0" x="92.49" y="-23.29" angle="238.51" type="car" speed="7.61" pos="76.27" lane="e3_0" slope="0.00"/>
        <vehicle id="1" x="152.29" y="13.34" angle="238.51" type="car" speed="4.49" pos="6.14" lane="e3_0" slope="0.00"/>
        <vehicle id="2" x="151.71" y="5.48" angle="238.51" type="car" speed="9.43" pos="10.74" lane="e3_2" slope="0.00"/>
        <vehicle id="3" x="161.43" y="33.48" angle="179.78" type="car" speed="7.33" pos="61.43" lane="e2_1" slope="0.00"/>
        <vehicle id="test" x="129.83" y="-0.42" angle="238.51" type="ev" speed="9.04" pos="32.48" lane="e3_0" slope="0.00"/>
    </timestep>
    <timestep time="35.00">
        <vehicle id="0" x="87.50" y="-26.35" angle="238.51" type="car" speed="5.85" pos="82.12" lane="e3_0" slope="0.00"/>
        <vehicle id="1" x="147.36" y="10.32" angle="238.51" type="car" speed="5.78" pos="11.92" lane="e3_0" slope="0.00"/>
        <vehicle id="2" x="145.55" y="1.70" angle="238.51" type="car" speed="7.23" pos="17.97" lane="e3_2" slope="0.00"/>
        <vehicle id="3" x="161.46" y="24.95" angle="179.78" type="car" speed="8.54" pos="69.96" lane="e2_1" slope="0.00"/>
        <vehicle id="test" x="123.27" y="-4.44" angle="238.51" type="ev" speed="7.69" pos="40.17" lane="e3_0" slope="0.00"/>
    </timestep>
    <timestep time="36.00">
        <vehicle id="0" x="84.23" y="-28.35" angle="238.51" type="car" speed="3.83" pos="85.95" lane="e3_0" slope="0.00"/>
        <vehicle id="1" x="140.42" y="6.07" angle="238.51" type="car" speed="8.14" pos="20.06" lane="e3_0" slope="0.00"/>
        <vehicle id="2" x="138.88" y="-2.38" angle="238.51" type="car" speed="7.81" pos="25.78" lane="e3_2" slope="0.00"/>
        <vehicle id="3" x="161.49" y="18.61" angle="179.78" type="car" speed="6.34" pos="76.30" lane="e2_1" slope="0.00"/>
        <vehicle id="test" x="114.83" y="-9.60" angle="238.51" type="ev" speed="9.90" pos="50.07" lane="e3_0" slope="0.00"/>
    </timestep>
    <timestep time="37.00">
        <vehicle id="0" x="82.84" y="-29.20" angle="238.51" type="car" speed="1.63" pos="87.58" lane="e3_0" slope="0.00"/>
        <vehicle id="1" x="133.44" y="1.79" angle="238.51" type="car" speed="8.19" pos="28.25" lane="e3_0" slope="0.00"/>
        <vehicle id="2" x="131.52" y="-6.89" angle="238.51" type="car" speed="8.64" pos="34.42" lane="e3_2" slope="0.00"/>
        <vehicle id="3" x="158.05" y="13.12" angle="222.92" type="car" speed="6.95" pos="1.35" lane="e3_1" slope="0.00"/>
        <vehicle id="test" x="106.38" y="-14.78" angle="238.51" type="ev" speed="9.91" pos="59.98" lane="e3_0" slope="0.00"/>
    </timestep>
    <timestep time="38.00">
        <vehicle id="0" x="80.33" y="-29.79" angle="248.25" type="car" speed="2.76" pos="1.69" lane=":j4_0_0" slope="0.00"/>
        <vehicle id="1" x="127.83" y="-1.64" angle="238.51" type="car" speed="6.58" pos="34.83" lane="e3_0" slope="0.00"/>
        <vehicle id="2" x="125.49" y="-10.59" angle="238.51" type="car" speed="7.08" pos="41.50" lane="e3_2" slope="0.00"/>
        <vehicle id="3" x="151.54" y="9.12" angle="238.51" type="car" speed="7.64" pos="8.99" lane="e3_1" slope="0.00"/>
        <vehicle id="test" x="101.48" y="-21.54" angle="238.51" type="ev" speed="7.71" pos="67.69" lane="e3_1" slope="0.00"/>
    </timestep>
    <timestep time="39.00">
        <vehicle id="0" x="76.84" y="-27.84" angle="295.81" type="car" speed="4.00" pos="3.99" lane="e4_0" slope="0.00"/>
        <vehicle id="1" x="120.60" y="-6.07" angle="238.51" type="car" speed="8.48" pos="43.31" lane="e3_0" slope="0.00"/>
        <vehicle id="2" x="117.06" y="-15.75" angle="238.51" type="car" speed="9.88" pos="51.38" lane="e3_2" slope="0.00"/>
        <vehicle id="3" x="143.97" y="4.49" angle="238.51" type="car" speed="8.87" pos="17.86" lane="e3_1" slope="0.00"/>
        <vehicle id="test" x="94.58" y="-25.77" angle="238.51" type="ev" speed="8.10" pos="75.79" lane="e3_1" slope="0.00"/>
    </timestep>
    <timestep time="40.00">
        <vehicle id="0" x="72.27" y="-25.26" angle="299.33" type="car" speed="5.25" pos="9.24" lane="e4_0" slope="0.00"/>
        <vehicle id="1" x="114.24" y="-9.97" angle="238.51" type="car" speed="7.45" pos="50.76" lane="e3_0" slope="0.00"/>
        <vehicle id="2" x="108.84" y="-17.03" angle="238.51" type="car" speed="7.68" pos="59.06" lane="e3_1" slope="0.00"/>
        <vehicle id="3" x="137.78" y="0.70" angle="238.51" type="car" speed="7.26" pos="25.12" lane="e3_1" slope="0.00"/>
        <vehicle id="test" x="87.14" y="-30.33" angle="238.51" type="ev" speed="8.73" pos="84.52" lane="e3_1" slope="0.00"/>
    </timestep>
    <timestep time="41.00">
        <vehicle id="0" x="64.93" y="-21.14" angle="299.33" type="car" speed="8.42" pos="17.66" lane="e4_0" slope="0.00"/>
        <vehicle id="1" x="108.37" y="-13.57" angle="238.51" type="car" speed="6.89" pos="57.65" lane="e3_0" slope="0.00"/>
        <vehicle id="2" x="101.22" y="-21.70" angle="238.51" type="car" speed="8.94" pos="68.00" lane="e3_1" slope="0.00"/>
        <vehicle id="3" x="132.12" y="-2.77" angle="238.51" type="car" speed="6.64" pos="31.76" lane="e3_1" slope="0.00"/>
        <vehicle id="test" x="80.99" y="-33.22" angle="244.69" type="ev" speed="6.90" pos="2.76" lane=":j4_0_1" slope="0.00"/>
    </timestep>
    <timestep time="42.00">
        <vehicle id="0" x="57.72" y="-17.09" angle="299.33" type="car" speed="8.27" pos="25.92" lane="e4_0" slope="0.00"/>
        <vehicle id="1" x="100.99" y="-18.09" angle="238.51" type="car" speed="8.65" pos="66.30" lane="e3_0" slope="0.00"/>
        <vehicle id="2" x="95.47" y="-25.22" angle="238.51" type="car" speed="6.74" pos="74.74" lane="e3_1" slope="0.00"/>
        <vehicle id="3" x="124.34" y="-7.54" angle="238.51" type="car" speed="9.12" pos="40.88" lane="e3_1" slope="0.00"/>
        <vehicle id="test" x="76.18" y="-31.14" angle="285.51" type="ev" speed="5.29" pos="2.94" lane="e4_1" slope="0.00"/>
    </timestep>
    <timestep time="43.00">
        <vehicle id="0" x="49.39" y="-12.41" angle="299.33" type="car" speed="9.55" pos="35.47" lane="e4_0" slope="0.00"/>
        <vehicle id="1" x="94.81" y="-21.87" angle="238.51" type="car" speed="7.25" pos="73.55" lane="e3_0" slope="0.00"/>
        <vehicle id="2" x="89.41" y="-28.93" angle="238.51" type="car" speed="7.11" pos="81.84" lane="e3_1" slope="0.00"/>
        <vehicle id="3" x="116.77" y="-12.18" angle="238.51" type="car" speed="8.88" pos="49.76" lane="e3_1" slope="0.00"/>
        <vehicle id="test" x="69.94" y="-27.63" angle="299.34" type="ev" speed="7.16" pos="10.10" lane="e4_1" slope="0.00"/>
    </timestep>
    <timestep time="44.00">
        <vehicle id="0" x="42.98" y="-8.81" angle="299.33" type="car" speed="7.35" pos="42.82" lane="e4_0" slope="0.00"/>
        <vehicle id="1" x="87.98" y="-26.06" angle="238.51" type="car" speed="8.01" pos="81.56" lane="e3_0" slope="0.00"/>
        <vehicle id="2" x="82.95" y="-32.79" angle="239.47" type="car" speed="7.53" pos="0.73" lane=":j4_0_1" slope="0.00"/>
        <vehicle id="3" x="109.69" y="-16.51" angle="238.51" type="car" speed="8.30" pos="58.06" lane="e3_1" slope="0.00"/>
        <vehicle id="test" x="63.96" y="-24.27" angle="299.34" type="ev" speed="6.86" pos="16.97" lane="e4_1" slope="0.00"/>
    </timestep>
    <timestep time="45.00">
        <vehicle id="0" x="37.05" y="-5.47" angle="299.33" type="car" speed="6.81" pos="49.63" lane="e4_0" slope="0.00"/>
        <vehicle id="1" x="83.02" y="-29.09" angle="238.51" type="car" speed="5.81" pos="87.37" lane="e3_0" slope="0.00"/>
        <vehicle id="2" x="77.92" y="-32.12" angle="279.82" type="car" speed="5.33" pos="0.95" lane="e4_1" slope="0.00"/>
        <vehicle id="3" x="102.80" y="-20.73" angle="238.51" type="car" speed="8.08" pos="66.14" lane="e3_1" slope="0.00"/>
        <vehicle id="test" x="55.64" y="-19.59" angle="299.34" type="ev" speed="9.54" pos="26.51" lane="e4_1" slope="0.00"/>
    </timestep>
    <timestep time="46.00">
        <vehicle id="0" x="30.91" y="-2.03" angle="299.33" type="car" speed="7.04" pos="56.67" lane="e4_0" slope="0.00"/>
        <vehicle id="1" x="79.77" y="-29.48" angle="255.83" type="car" speed="3.61" pos="0.63" lane="e4_0" slope="0.00"/>
        <vehicle id="2" x="70.91" y="-28.17" angle="299.34" type="car" speed="8.05" pos="9.00" lane="e4_1" slope="0.00"/>
        <vehicle id="3" x="97.65" y="-23.89" angle="238.51" type="car" speed="6.04" pos="72.18" lane="e3_1" slope="0.00"/>
        <vehicle id="test" x="48.32" y="-15.48" angle="299.34" type="ev" speed="8.40" pos="34.91" lane="e4_1" slope="0.00"/>
    </timestep>
    <timestep time="47.00">
        <vehicle id="0" x="22.51" y="2.70" angle="299.33" type="car" speed="9.64" pos="66.31" lane="e4_0" slope="0.00"/>
        <vehicle id="1" x="75.37" y="-27.01" angle="299.33" type="car" speed="5.05" pos="5.68" lane="e4_0" slope="0.00"/>
        <vehicle id="2" x="62.91" y="-23.68" angle="299.34" type="car" speed="9.17" pos="18.17" lane="e4_1" slope="0.00"/>
        <vehicle id="3" x="91.45" y="-27.69" angle="238.51" type="car" speed="7.27" pos="79.46" lane="e3_1" slope="0.00"/>
        <vehicle id="test" x="41.74" y="-11.78" angle="299.34" type="ev" speed="7.55" pos="42.46" lane="e4_1" slope="0.00"/>
    </timestep>
    <timestep time="48.00">
        <vehicle id="0" x="13.79" y="7.59" angle="299.33" type="car" speed="9.99" pos="76.30" lane="e4_0" slope="0.00"/>
        <vehicle id="1" x="68.87" y="-23.36" angle="299.33" type="car" speed="7.45" pos="13.13" lane="e4_0" slope="0.00"/>
        <vehicle id="2" x="56.83" y="-20.26" angle="299.34" type="car" speed="6.97" pos="25.15" lane="e4_1" slope="0.00"/>
        <vehicle id="3" x="85.93" y="-31.07" angle="238.51" type="car" speed="6.47" pos="85.93" lane="e3_1" slope="0.00"/>
        <vehicle id="test" x="34.63" y="-7.79" angle="299.34" type="ev" speed="8.15" pos="50.61" lane="e4_1" slope="0.00"/>
    </timestep>
    <timestep time="49.00">
        <vehicle id="0" x="7.00" y="11.41" angle="299.33" type="car" speed="7.79" pos="84.09" lane="e4_0" slope="0.00"/>
        <vehicle id="1" x="62.46" y="-19.75" angle="299.33" type="car" speed="7.36" pos="20.49" lane="e4_0" slope="0.00"/>
        <vehicle id="2" x="48.94" y="-15.83" angle="299.34" type="car" speed="9.05" pos="34.19" lane="e4_1" slope="0.00"/>
        <vehicle id="3" x="81.27" y="-33.24" angle="245.31" type="car" speed="5.20" pos="2.48" lane=":j4_0_1" slope="0.00"/>
        <vehicle id="test" x="26.92" y="-3.45" angle="299.34" type="ev" speed="8.85" pos="59.46" lane="e4_1" slope="0.00"/>
    </timestep>
    <timestep time="50.00">
        <vehicle id="0" x="2.13" y="14.15" angle="299.33" type="car" speed="5.59" pos="89.68" lane="e4_0" slope="0.00"/>