<?xml version="1.0" encoding="UTF-8"?>

<!-- generated on 2024-07-24 12:42:43 by Eclipse SUMO GUI Version 1.20.0
<configuration xmlns:xsi="http://www.w3.org/2001/XMLSchema-instance" xsi:noNamespaceSchemaLocation="http://sumo.dlr.de/xsd/sumoConfiguration.xsd">

    <input>
        <net-file value="data/osm.net.xml.gz"/>
        <route-files value="data/osm.passenger.trips.xml"/>
        <additional-files value="data/osm.poly.xml.gz"/>
    </input>

    <output>
        <fcd-output value="testWithAccFCD.xml"/>
    </output>

    <processing>
        <ignore-route-errors value="true"/>
        <tls.actuated.jam-threshold value="30"/>
    </processing>

    <routing>
        <device.rerouting.adaptation-steps value="18"/>
        <device.rerouting.adaptation-interval value="10"/>
    </routing>

    <report>
        <verbose value="true"/>
        <duration-log.statistics value="true"/>
        <no-step-log value="true"/>
    </report>

    <traci_server>
        <remote-port value="58202"/>
    </traci_server>

    <gui_only>
        <gui-settings-file value="data/osm.view.xml"/>
    </gui_only>

</configuration>
-->

<fcd-export xmlns:xsi="http://www.w3.org/2001/XMLSchema-instance" xsi:noNamespaceSchemaLocation="http://sumo.dlr.de/xsd/fcd_file.xsd">
    <timestep time="0.00">
        <vehicle id="veh0" x="235.32" y="826.79" angle="63.04" type="veh_passenger" speed="0.00" pos="5.10" lane="319228922#1_0" slope="0.00"/>
    </timestep>
    <timestep time="1.00">
        <vehicle id="veh0" x="236.21" y="827.25" angle="63.04" type="veh_passenger@veh0" speed="1.00" pos="6.10" lane="319228922#1_0" slope="0.00"/>
    </timestep>
    <timestep time="2.00">
        <vehicle id="veh0" x="237.99" y="828.15" angle="63.04" type="veh_passenger@veh0" speed="2.00" pos="8.10" lane="319228922#1_0" slope="0.00"/>
    </timestep>
    <timestep time="3.00">
        <vehicle id="veh0" x="240.66" y="829.51" angle="63.04" type="veh_passenger@veh0" speed="3.00" pos="11.10" lane="319228922#1_0" slope="0.00"/>
    </timestep>
    <timestep time="4.00">
        <vehicle id="veh0" x="244.23" y="831.32" angle="63.04" type="veh_passenger@veh0" speed="4.00" pos="15.10" lane="319228922#1_0" slope="0.00"/>
    </timestep>
    <timestep time="5.00">
        <vehicle id="veh0" x="248.69" y="833.59" angle="63.04" type="veh_passenger@veh0" speed="5.00" pos="20.10" lane="319228922#1_0" slope="0.00"/>
    </timestep>
    <timestep time="6.00">
        <vehicle id="veh0" x="253.14" y="835.86" angle="63.04" type="veh_passenger@veh0" speed="5.00" pos="25.10" lane="319228922#1_0" slope="0.00"/>
    </timestep>
    <timestep time="7.00">
        <vehicle id="veh0" x="257.60" y="838.12" angle="63.04" type="veh_passenger@veh0" speed="5.00" pos="30.10" lane="319228922#1_0" slope="0.00"/>
    </timestep>
    <timestep time="8.00">
        <vehicle id="veh0" x="261.95" y="840.57" angle="60.66" type="veh_passenger@veh0" speed="5.00" pos="35.10" lane="319228922#1_0" slope="0.00"/>
    </timestep>
    <timestep time="9.00">
        <vehicle id="veh0" x="266.28" y="843.09" angle="59.79" type="veh_passenger@veh0" speed="5.00" pos="40.10" lane="319228922#1_0" slope="0.00"/>
    </timestep>
    <timestep time="10.00">
        <vehicle id="veh0" x="270.60" y="845.60" angle="59.79" type="veh_passenger@veh0" speed="5.00" pos="45.10" lane="319228922#1_0" slope="0.00"/>
    </timestep>
    <timestep time="11.00">
        <vehicle id="veh0" x="274.92" y="848.12" angle="59.79" type="veh_passenger@veh0" speed="5.00" pos="50.10" lane="319228922#1_0" slope="0.00"/>
    </timestep>
    <timestep time="12.00">
        <vehicle id="veh0" x="279.18" y="850.74" angle="58.41" type="veh_passenger@veh0" speed="5.00" pos="3.33" lane=":3256430169_6_0" slope="0.00"/>
    </timestep>
    <timestep time="13.00">
        <vehicle id="veh0" x="283.40" y="853.41" angle="57.72" type="veh_passenger@veh0" speed="5.00" pos="8.33" lane=":3256430169_6_0" slope="0.00"/>
    </timestep>
    <timestep time="14.00">
        <vehicle id="veh0" x="287.63" y="856.08" angle="57.72" type="veh_passenger@veh0" speed="5.00" pos="13.33" lane=":3256430169_6_0" slope="0.00"/>
    </timestep>
    <timestep time="15.00">
        <vehicle id="veh0" x="291.86" y="858.75" angle="57.72" type="veh_passenger@veh0" speed="5.00" pos="18.33" lane=":3256430169_6_0" slope="0.00"/>
    </timestep>
    <timestep time="16.00">
        <vehicle id="veh0" x="296.09" y="861.42" angle="57.72" type="veh_passenger@veh0" speed="5.00" pos="23.33" lane=":3256430169_6_0" slope="0.00"/>
    </timestep>
    <timestep time="17.00">
        <vehicle id="veh0" x="300.29" y="864.13" angle="57.24" type="veh_passenger@veh0" speed="5.00" pos="4.50" lane="319228922#2_0" slope="0.00"/>
    </timestep>
    <timestep time="18.00">
        <vehicle id="veh0" x="304.50" y="866.84" angle="57.19" type="veh_passenger@veh0" speed="5.00" pos="9.50" lane="319228922#2_0" slope="0.00"/>
    </timestep>
    <timestep time="19.00">
        <vehicle id="veh0" x="308.44" y="869.91" angle="52.09" type="veh_passenger@veh0" speed="5.00" pos="3.44" lane="812880930_0" slope="0.00"/>
    </timestep>
    <timestep time="20.00">
        <vehicle id="veh0" x="312.28" y="873.10" angle="50.30" type="veh_passenger@veh0" speed="5.00" pos="8.44" lane="812880930_0" slope="0.00"/>
    </timestep>
    <timestep time="21.00">
        <vehicle id="veh0" x="316.13" y="876.30" angle="50.30" type="veh_passenger@veh0" speed="5.00" pos="13.44" lane="812880930_0" slope="0.00"/>
    </timestep>
    <timestep time="22.00">
        <vehicle id="veh0" x="319.98" y="879.49" angle="50.30" type="veh_passenger@veh0" speed="5.00" pos="18.44" lane="812880930_0" slope="0.00"/>
    </timestep>
    <timestep time="23.00">
        <vehicle id="veh0" x="323.83" y="882.68" angle="50.30" type="veh_passenger@veh0" speed="5.00" pos="23.44" lane="812880930_0" slope="0.00"/>
    </timestep>
    <timestep time="24.00">
        <vehicle id="veh0" x="327.67" y="885.88" angle="50.30" type="veh_passenger@veh0" speed="5.00" pos="28.44" lane="812880930_0" slope="0.00"/>
    </timestep>
    <timestep time="25.00">
        <vehicle id="veh0" x="331.52" y="889.07" angle="50.30" type="veh_passenger@veh0" speed="5.00" pos="33.44" lane="812880930_0" slope="0.00"/>
    </timestep>
    <timestep time="26.00">
        <vehicle id="veh0" x="335.37" y="892.27" angle="50.30" type="veh_passenger@veh0" speed="5.00" pos="38.44" lane="812880930_0" slope="0.00"/>
    </timestep>
    <timestep time="27.00">
        <vehicle id="veh0" x="339.21" y="895.46" angle="50.30" type="veh_passenger@veh0" speed="5.00" pos="43.44" lane="812880930_0" slope="0.00"/>
    </timestep>
    <timestep time="28.00">
        <vehicle id="veh0" x="343.00" y="898.72" angle="49.26" type="veh_passenger@veh0" speed="5.00" pos="48.44" lane="812880930_0" slope="0.00"/>
    </timestep>
    <timestep time="29.00">
        <vehicle id="veh0" x="346.78" y="901.99" angle="49.13" type="veh_passenger@veh0" speed="5.00" pos="53.44" lane="812880930_0" slope="0.00"/>
    </timestep>
    <timestep time="30.00">
        <vehicle id="veh0" x="350.57" y="905.27" angle="49.13" type="veh_passenger@veh0" speed="5.00" pos="58.44" lane="812880930_0" slope="0.00"/>
    </timestep>
    <timestep time="31.00">
        <vehicle id="veh0" x="354.35" y="908.54" angle="49.13" type="veh_passenger@veh0" speed="5.00" pos="63.44" lane="812880930_0" slope="0.00"/>
    </timestep>
    <timestep time="32.00">
        <vehicle id="veh0" x="358.13" y="911.81" angle="49.13" type="veh_passenger@veh0" speed="5.00" pos="68.44" lane="812880930_0" slope="0.00"/>
    </timestep>
    <timestep time="33.00">
        <vehicle id="veh0" x="361.91" y="915.08" angle="49.13" type="veh_passenger@veh0" speed="5.00" pos="73.44" lane="812880930_0" slope="0.00"/>
    </timestep>
    <timestep time="34.00">
        <vehicle id="veh0" x="365.69" y="918.35" angle="49.13" type="veh_passenger@veh0" speed="5.00" pos="78.44" lane="812880930_0" slope="0.00"/>
    </timestep>
    <timestep time="35.00">
        <vehicle id="veh0" x="369.47" y="921.63" angle="49.13" type="veh_passenger@veh0" speed="5.00" pos="83.44" lane="812880930_0" slope="0.00"/>
    </timestep>
    <timestep time="36.00">
        <vehicle id="veh0" x="373.25" y="924.90" angle="49.13" type="veh_passenger@veh0" speed="5.00" pos="88.44" lane="812880930_0" slope="0.00"/>
    </timestep>
    <timestep time="37.00">
        <vehicle id="veh0" x="377.20" y="927.94" angle="52.34" type="veh_passenger@veh0" speed="5.00" pos="93.44" lane="812880930_0" slope="0.00"/>
    </timestep>
    <timestep time="38.00">
        <vehicle id="veh0" x="381.45" y="930.59" angle="58.12" type="veh_passenger@veh0" speed="5.00" pos="98.44" lane="812880930_0" slope="0.00"/>
    </timestep>
    <timestep time="39.00">
        <vehicle id="veh0" x="385.69" y="933.23" angle="58.12" type="veh_passenger@veh0" speed="5.00" pos="103.44" lane="812880930_0" slope="0.00"/>
    </timestep>
    <timestep time="40.00">
        <vehicle id="veh0" x="389.94" y="935.87" angle="58.12" type="veh_passenger@veh0" speed="5.00" pos="108.44" lane="812880930_0" slope="0.00"/>
    </timestep>
    <timestep time="41.00">
        <vehicle id="veh0" x="394.18" y="938.51" angle="58.12" type="veh_passenger@veh0" speed="5.00" pos="113.44" lane="812880930_0" slope="0.00"/>
    </timestep>
    <timestep time="42.00">
        <vehicle id="veh0" x="398.43" y="941.15" angle="58.12" type="veh_passenger@veh0" speed="5.00" pos="118.44" lane="812880930_0" slope="0.00"/>
    </timestep>
    <timestep time="43.00">
        <vehicle id="veh0" x="402.68" y="943.79" angle="58.12" type="veh_passenger@veh0" speed="5.00" pos="123.44" lane="812880930_0" slope="0.00"/>
    </timestep>
    <timestep time="44.00">
        <vehicle id="veh0" x="406.92" y="946.43" angle="58.12" type="veh_passenger@veh0" speed="5.00" pos="128.44" lane="812880930_0" slope="0.00"/>
    </timestep>
    <timestep time="45.00">
        <vehicle id="veh0" x="411.17" y="949.07" angle="58.12" type="veh_passenger@veh0" speed="5.00" pos="133.44" lane="812880930_0" slope="0.00"/>
    </timestep>
    <timestep time="46.00">
        <vehicle id="veh0" x="415.41" y="951.71" angle="58.12" type="veh_passenger@veh0" speed="5.00" pos="138.44" lane="812880930_0" slope="0.00"/>
    </timestep>
    <timestep time="47.00">
        <vehicle id="veh0" x="419.66" y="954.35" angle="58.12" type="veh_passenger@veh0" speed="5.00" pos="143.44" lane="812880930_0" slope="0.00"/>
    </timestep>
    <timestep time="48.00">
        <vehicle id="veh0" x="423.91" y="956.99" angle="58.12" type="veh_passenger@veh0" speed="5.00" pos="148.44" lane="812880930_0" slope="0.00"/>
    </timestep>
    <timestep time="49.00">
        <vehicle id="veh0" x="428.15" y="959.63" angle="58.12" type="veh_passenger@veh0" speed="5.00" pos="153.44" lane="812880930_0" slope="0.00"/>
    </timestep>
    <timestep time="50.00">
        <vehicle id="veh0" x="432.40" y="962.27" angle="58.12" type="veh_passenger@veh0" speed="5.00" pos="158.44" lane="812880930_0" slope="0.00"/>
    </timestep>
    <timestep time="51.00">
        <vehicle id="veh0" x="436.65" y="964.91" angle="58.12" type="veh_passenger@veh0" speed="5.00" pos="163.44" lane="812880930_0" slope="0.00"/>
    </timestep>
    <timestep time="52.00">
        <vehicle id="veh0" x="440.89" y="967.55" angle="58.12" type="veh_passenger@veh0" speed="5.00" pos="168.44" lane="812880930_0" slope="0.00"/>
    </timestep>
    <timestep time="53.00">
        <vehicle id="veh0" x="445.14" y="970.19" angle="58.12" type="veh_passenger@veh0" speed="5.00" pos="173.44" lane="812880930_0" slope="0.00"/>
    </timestep>
    <timestep time="54.00">
        <vehicle id="veh0" x="449.38" y="972.83" angle="58.12" type="veh_passenger@veh0" speed="5.00" pos="178.44" lane="812880930_0" slope="0.00"/>
    </timestep>
    <timestep time="55.00">
        <vehicle id="veh0" x="453.63" y="975.48" angle="58.12" type="veh_passenger@veh0" speed="5.00" pos="183.44" lane="812880930_0" slope="0.00"/>
    </timestep>
    <timestep time="56.00">
        <vehicle id="veh0" x="457.88" y="978.12" angle="58.12" type="veh_passenger@veh0" speed="5.00" pos="188.44" lane="812880930_0" slope="0.00"/>
    </timestep>
    <timestep time="57.00">
        <vehicle id="veh0" x="462.12" y="980.76" angle="58.12" type="veh_passenger@veh0" speed="5.00" pos="193.44" lane="812880930_0" slope="0.00"/>
    </timestep>
    <timestep time="58.00">
        <vehicle id="veh0" x="466.37" y="983.40" angle="58.12" type="veh_passenger@veh0" speed="5.00" pos="198.44" lane="812880930_0" slope="0.00"/>
    </timestep>
    <timestep time="59.00">
        <vehicle id="veh0" x="470.61" y="986.04" angle="58.12" type="veh_passenger@veh0" speed="5.00" pos="203.44" lane="812880930_0" slope="0.00"/>
    </timestep>
    <timestep time="60.00">
        <vehicle id="veh0" x="474.82" y="988.73" angle="57.35" type="veh_passenger@veh0" speed="5.00" pos="3.53" lane="812880929#0_0" slope="0.00"/>
    </timestep>
    <timestep time="61.00">
        <vehicle id="veh0" x="479.01" y="991.46" angle="57.00" type="veh_passenger@veh0" speed="5.00" pos="8.53" lane="812880929#0_0" slope="0.00"/>
    </timestep>
    <timestep time="62.00">
        <vehicle id="veh0" x="483.21" y="994.18" angle="57.00" type="veh_passenger@veh0" speed="5.00" pos="13.53" lane="812880929#0_0" slope="0.00"/>
    </timestep>
    <timestep time="63.00">
        <vehicle id="veh0" x="487.40" y="996.90" angle="57.00" type="veh_passenger@veh0" speed="5.00" pos="18.53" lane="812880929#0_0" slope="0.00"/>
    </timestep>
    <timestep time="64.00">
        <vehicle id="veh0" x="491.59" y="999.62" angle="57.00" type="veh_passenger@veh0" speed="5.00" pos="23.53" lane="812880929#0_0" slope="0.00"/>
    </timestep>
    <timestep time="65.00">
        <vehicle id="veh0" x="495.79" y="1002.35" angle="57.00" type="veh_passenger@veh0" speed="5.00" pos="28.53" lane="812880929#0_0" slope="0.00"/>
    </timestep>
    <timestep time="66.00">
        <vehicle id="veh0" x="499.98" y="1005.07" angle="57.00" type="veh_passenger@veh0" speed="5.00" pos="33.53" lane="812880929#0_0" slope="0.00"/>
    </timestep>
    <timestep time="67.00">
        <vehicle id="veh0" x="504.17" y="1007.79" angle="57.00" type="veh_passenger@veh0" speed="5.00" pos="38.53" lane="812880929#0_0" slope="0.00"/>
    </timestep>
    <timestep time="68.00">
        <vehicle id="veh0" x="508.37" y="1010.52" angle="57.00" type="veh_passenger@veh0" speed="5.00" pos="43.53" lane="812880929#0_0" slope="0.00"/>
    </timestep>
    <timestep time="69.00">
        <vehicle id="veh0" x="512.56" y="1013.24" angle="57.00" type="veh_passenger@veh0" speed="5.00" pos="48.53" lane="812880929#0_0" slope="0.00"/>
    </timestep>
    <timestep time="70.00">
        <vehicle id="veh0" x="516.75" y="1015.96" angle="57.00" type="veh_passenger@veh0" speed="5.00" pos="53.53" lane="812880929#0_0" slope="0.00"/>
    </timestep>
    <timestep time="71.00">
        <vehicle id="veh0" x="520.95" y="1018.69" angle="57.00" type="veh_passenger@veh0" speed="5.00" pos="58.53" lane="812880929#0_0" slope="0.00"/>
    </timestep>
    <timestep time="72.00">
        <vehicle id="veh0" x="525.14" y="1021.41" angle="57.00" type="veh_passenger@veh0" speed="5.00" pos="63.53" lane="812880929#0_0" slope="0.00"/>
    </timestep>
    <timestep time="73.00">
        <vehicle id="veh0" x="529.34" y="1024.13" angle="57.00" type="veh_passenger@veh0" speed="5.00" pos="68.53" lane="812880929#0_0" slope="0.00"/>
    </timestep>
    <timestep time="74.00">
        <vehicle id="veh0" x="533.58" y="1026.76" angle="58.26" type="veh_passenger@veh0" speed="5.00" pos="1.00" lane=":3256430172_8_0" slope="0.00"/>
    </timestep>
    <timestep time="75.00">
        <vehicle id="veh0" x="538.30" y="1027.96" angle="75.77" type="veh_passenger@veh0" speed="5.00" pos="6.00" lane=":3256430172_8_0" slope="0.00"/>
    </timestep>
    <timestep time="76.00">
        <vehicle id="veh0" x="541.93" y="1024.79" angle="131.13" type="veh_passenger@veh0" speed="5.00" pos="0.61" lane="498871487#0_0" slope="0.00"/>
    </timestep>
    <timestep time="77.00">
        <vehicle id="veh0" x="544.35" y="1020.41" angle="151.13" type="veh_passenger@veh0" speed="5.00" pos="5.61" lane="498871487#0_0" slope="0.00"/>
    </timestep>
    <timestep time="78.00">
        <vehicle id="veh0" x="546.76" y="1016.03" angle="151.13" type="veh_passenger@veh0" speed="5.00" pos="10.61" lane="498871487#0_0" slope="0.00"/>
    </timestep>
    <timestep time="79.00">
        <vehicle id="veh0" x="549.18" y="1011.65" angle="151.13" type="veh_passenger@veh0" speed="5.00" pos="15.61" lane="498871487#0_0" slope="0.00"/>
    </timestep>
    <timestep time="80.00">
        <vehicle id="veh0" x="551.59" y="1007.27" angle="151.13" type="veh_passenger@veh0" speed="5.00" pos="20.61" lane="498871487#0_0" slope="0.00"/>
    </timestep>
    <timestep time="81.00">
        <vehicle id="veh0" x="554.01" y="1002.89" angle="151.13" type="veh_passenger@veh0" speed="5.00" pos="25.61" lane="498871487#0_0" slope="0.00"/>
    </timestep>
    <timestep time="82.00">
        <vehicle id="veh0" x="556.42" y="998.52" angle="151.13" type="veh_passenger@veh0" speed="5.00" pos="30.61" lane="498871487#0_0" slope="0.00"/>
    </timestep>
    <timestep time="83.00">
        <vehicle id="veh0" x="558.83" y="994.14" angle="151.13" type="veh_passenger@veh0" speed="5.00" pos="35.61" lane="498871487#0_0" slope="0.00"/>
    </timestep>
    <timestep time="84.00">
        <vehicle id="veh0" x="561.25" y="989.76" angle="151.13" type="veh_passenger@veh0" speed="5.00" pos="40.61" lane="498871487#0_0" slope="0.00"/>
    </timestep>
    <timestep time="85.00">
        <vehicle id="veh0" x="563.66" y="985.38" angle="151.13" type="veh_passenger@veh0" speed="5.00" pos="45.61" lane="498871487#0_0" slope="0.00"/>
    </timestep>
    <timestep time="86.00">
        <vehicle id="veh0" x="566.08" y="981.00" angle="151.13" type="veh_passenger@veh0" speed="5.00" pos="50.61" lane="498871487#0_0" slope="0.00"/>
    </timestep>
    <timestep time="87.00">
        <vehicle id="veh0" x="568.49" y="976.62" angle="151.13" type="veh_passenger@veh0" speed="5.00" pos="55.61" lane="498871487#0_0" slope="0.00"/>
    </timestep>
    <timestep time="88.00">
        <vehicle id="veh0" x="570.91" y="972.24" angle="151.13" type="veh_passenger@veh0" speed="5.00" pos="60.61" lane="498871487#0_0" slope="0.00"/>
    </timestep>
    <timestep time="89.00">
        <vehicle id="veh0" x="573.32" y="967.87" angle="151.13" type="veh_passenger@veh0" speed="5.00" pos="65.61" lane="498871487#0_0" slope="0.00"/>
    </timestep>
    <timestep time="90.00">
        <vehicle id="veh0" x="575.73" y="963.49" angle="151.13" type="veh_passenger@veh0" speed="5.00" pos="70.61" lane="498871487#0_0" slope="0.00"/>
    </timestep>
    <timestep time="91.00">
        <vehicle id="veh0" x="578.15" y="959.11" angle="151.13" type="veh_passenger@veh0" speed="5.00" pos="75.61" lane="498871487#0_0" slope="0.00"/>
    </timestep>
    <timestep time="92.00">
        <vehicle id="veh0" x="580.56" y="954.73" angle="151.13" type="veh_passenger@veh0" speed="5.00" pos="80.61" lane="498871487#0_0" slope="0.00"/>
    </timestep>
    <timestep time="93.00">
        <vehicle id="veh0" x="582.98" y="950.35" angle="151.13" type="veh_passenger@veh0" speed="5.00" pos="85.61" lane="498871487#0_0" slope="0.00"/>
    </timestep>
    <timestep time="94.00">
        <vehicle id="veh0" x="585.39" y="945.97" angle="151.13" type="veh_passenger@veh0" speed="5.00" pos="90.61" lane="498871487#0_0" slope="0.00"/>
    </timestep>
    <timestep time="95.00">
        <vehicle id="veh0" x="587.79" y="941.59" angle="151.33" type="veh_passenger@veh0" speed="5.00" pos="1.09" lane=":9020370384_5_0" slope="0.00"/>
    </timestep>
    <timestep time="96.00">
        <vehicle id="veh0" x="590.14" y="937.16" angle="152.05" type="veh_passenger@veh0" speed="5.00" pos="6.09" lane=":9020370384_5_0" slope="0.00"/>
    </timestep>
    <timestep time="97.00">
        <vehicle id="veh0" x="592.46" y="932.73" angle="152.38" type="veh_passenger@veh0" speed="5.00" pos="1.84" lane="498871487#1_0" slope="0.00"/>
    </timestep>
    <timestep time="98.00">
        <vehicle id="veh0" x="594.73" y="928.28" angle="152.95" type="veh_passenger@veh0" speed="5.00" pos="6.84" lane="498871487#1_0" slope="0.00"/>
    </timestep>
    <timestep time="99.00">
        <vehicle id="veh0" x="597.00" y="923.83" angle="152.95" type="veh_passenger@veh0" speed="5.00" pos="11.84" lane="498871487#1_0" slope="0.00"/>
    </timestep>
    <timestep time="100.00">
        <vehicle id="veh0" x="599.28" y="919.37" angle="152.95" type="veh_passenger@veh0" speed="5.00" pos="16.84" lane="498871487#1_0" slope="0.00"/>
    </timestep>
    <timestep time="101.00">
        <vehicle id="veh0" x="601.55" y="914.92" angle="152.95" type="veh_passenger@veh0" speed="5.00" pos="21.84" lane="498871487#1_0" slope="0.00"/>
    </timestep>
    <timestep time="102.00">
        <vehicle id="veh0" x="603.82" y="910.47" angle="152.95" type="veh_passenger@veh0" speed="5.00" pos="26.84" lane="498871487#1_0" slope="0.00"/>
    </timestep>
    <timestep time="103.00">
        <vehicle id="veh0" x="606.10" y="906.02" angle="152.95" type="veh_passenger@veh0" speed="5.00" pos="31.84" lane="498871487#1_0" slope="0.00"/>
    </timestep>
    <timestep time="104.00">
        <vehicle id="veh0" x="608.37" y="901.56" angle="152.95" type="veh_passenger@veh0" speed="5.00" pos="36.84" lane="498871487#1_0" slope="0.00"/>
    </timestep>
    <timestep time="105.00">
        <vehicle id="veh0" x="610.65" y="897.11" angle="152.95" type="veh_passenger@veh0" speed="5.00" pos="41.84" lane="498871487#1_0" slope="0.00"/>
    </timestep>
    <timestep time="106.00">
        <vehicle id="veh0" x="612.92" y="892.66" angle="152.95" type="veh_passenger@veh0" speed="5.00" pos="46.84" lane="498871487#1_0" slope="0.00"/>
    </timestep>
    <timestep time="107.00">
        <vehicle id="veh0" x="615.19" y="888.21" angle="152.95" type="veh_passenger@veh0" speed="5.00" pos="51.84" lane="498871487#1_0" slope="0.00"/>
    </timestep>
    <timestep time="108.00">
        <vehicle id="veh0" x="617.47" y="883.75" angle="152.95" type="veh_passenger@veh0" speed="5.00" pos="56.84" lane="498871487#1_0" slope="0.00"/>
    </timestep>
    <timestep time="109.00">
        <vehicle id="veh0" x="619.74" y="879.30" angle="152.95" type="veh_passenger@veh0" speed="5.00" pos="61.84" lane="498871487#1_0" slope="0.00"/>
    </timestep>
    <timestep time="110.00">
        <vehicle id="veh0" x="622.01" y="874.85" angle="152.95" type="veh_passenger@veh0" speed="5.00" pos="66.84" lane="498871487#1_0" slope="0.00"/>
    </timestep>
    <timestep time="111.00">
        <vehicle id="veh0" x="624.29" y="870.40" angle="152.95" type="veh_passenger@veh0" speed="5.00" pos="71.84" lane="498871487#1_0" slope="0.00"/>
    </timestep>
    <timestep time="112.00">
        <vehicle id="veh0" x="626.75" y="866.06" angle="150.39" type="veh_passenger@veh0" speed="5.00" pos="1.76" lane=":4902150139_14_0" slope="0.00"/>
    </timestep>
    <timestep time="113.00">
        <vehicle id="veh0" x="630.21" y="862.54" angle="135.52" type="veh_passenger@veh0" speed="5.00" pos="2.68" lane=":4902150139_18_0" slope="0.00"/>
    </timestep>
    <timestep time="114.00">
        <vehicle id="veh0" x="634.94" y="861.32" angle="104.41" type="veh_passenger@veh0" speed="5.00" pos="7.68" lane=":4902150139_18_0" slope="0.00"/>
    </timestep>
    <timestep time="115.00">
        <vehicle id="veh0" x="639.85" y="862.18" angle="80.05" type="veh_passenger@veh0" speed="5.00" pos="1.94" lane="-812786139#5_0" slope="0.00"/>
    </timestep>
    <timestep time="116.00">
        <vehicle id="veh0" x="644.68" y="863.48" angle="74.97" type="veh_passenger@veh0" speed="5.00" pos="6.94" lane="-812786139#5_0" slope="0.00"/>
    </timestep>
    <timestep time="117.00">
        <vehicle id="veh0" x="649.51" y="864.78" angle="74.97" type="veh_passenger@veh0" speed="5.00" pos="11.94" lane="-812786139#5_0" slope="0.00"/>
    </timestep>
    <timestep time="118.00">
        <vehicle id="veh0" x="654.34" y="866.07" angle="74.97" type="veh_passenger@veh0" speed="5.00" pos="16.94" lane="-812786139#5_0" slope="0.00"/>
    </timestep>
    <timestep time="119.00">
        <vehicle id="veh0" x="659.17" y="867.37" angle="74.99" type="veh_passenger@veh0" speed="5.00" pos="0.96" lane=":7603095272_2_0" slope="0.00"/>
    </timestep>
    <timestep time="120.00">
        <vehicle id="veh0" x="664.04" y="868.49" angle="77.07" type="veh_passenger@veh0" speed="5.00" pos="5.96" lane=":7603095272_2_0" slope="0.00"/>
    </timestep>
    <timestep time="121.00">
        <vehicle id="veh0" x="668.97" y="869.28" angle="80.85" type="veh_passenger@veh0" speed="5.00" pos="2.06" lane="-812786139#4_0" slope="0.00"/>
    </timestep>
    <timestep time="122.00">
        <vehicle id="veh0" x="673.91" y="870.06" angle="81.04" type="veh_passenger@veh0" speed="5.00" pos="7.06" lane="-812786139#4_0" slope="0.00"/>
    </timestep>
    <timestep time="123.00">
        <vehicle id="veh0" x="678.85" y="870.84" angle="81.04" type="veh_passenger@veh0" speed="5.00" pos="12.06" lane="-812786139#4_0" slope="0.00"/>
    </timestep>
    <timestep time="124.00">
        <vehicle id="veh0" x="683.79" y="871.62" angle="81.04" type="veh_passenger@veh0" speed="5.00" pos="17.06" lane="-812786139#4_0" slope="0.00"/>
    </timestep>
    <timestep time="125.00">
        <vehicle id="veh0" x="688.73" y="872.39" angle="81.04" type="veh_passenger@veh0" speed="5.00" pos="22.06" lane="-812786139#4_0" slope="0.00"/>
    </timestep>
    <timestep time="126.00">
        <vehicle id="veh0" x="693.67" y="873.17" angle="81.04" type="veh_passenger@veh0" speed="5.00" pos="27.06" lane="-812786139#4_0" slope="0.00"/>
    </timestep>
    <timestep time="127.00">
        <vehicle id="veh0" x="698.61" y="873.94" angle="81.12" type="veh_passenger@veh0" speed="5.00" pos="32.06" lane="-812786139#4_0" slope="0.00"/>
    </timestep>
    <timestep time="128.00">
        <vehicle id="veh0" x="703.55" y="874.66" angle="81.74" type="veh_passenger@veh0" speed="5.00" pos="37.06" lane="-812786139#4_0" slope="0.00"/>
    </timestep>
    <timestep time="129.00">
        <vehicle id="veh0" x="708.50" y="875.38" angle="81.74" type="veh_passenger@veh0" speed="5.00" pos="42.06" lane="-812786139#4_0" slope="0.00"/>
    </timestep>
    <timestep time="130.00">
        <vehicle id="veh0" x="713.45" y="876.10" angle="81.74" type="veh_passenger@veh0" speed="5.00" pos="47.06" lane="-812786139#4_0" slope="0.00"/>
    </timestep>
    <timestep time="131.00">
        <vehicle id="veh0" x="718.40" y="876.82" angle="81.74" type="veh_passenger@veh0" speed="5.00" pos="52.06" lane="-812786139#4_0" slope="0.00"/>
    </timestep>
    <timestep time="132.00">
        <vehicle id="veh0" x="723.34" y="877.53" angle="81.74" type="veh_passenger@veh0" speed="5.00" pos="57.06" lane="-812786139#4_0" slope="0.00"/>
    </timestep>
    <timestep time="133.00">
        <vehicle id="veh0" x="728.30" y="878.17" angle="82.64" type="veh_passenger@veh0" speed="5.00" pos="4.68" lane=":7603095249_2_0" slope="0.00"/>
    </timestep>
    <timestep time="134.00">
        <vehicle id="veh0" x="733.29" y="878.48" angle="86.54" type="veh_passenger@veh0" speed="5.00" pos="0.70" lane="-812786139#3_0" slope="0.00"/>
    </timestep>
    <timestep time="135.00">
        <vehicle id="veh0" x="738.28" y="878.74" angle="87.00" type="veh_passenger@veh0" speed="5.00" pos="5.70" lane="-812786139#3_0" slope="0.00"/>
    </timestep>
    <timestep time="136.00">
        <vehicle id="veh0" x="743.28" y="879.00" angle="87.00" type="veh_passenger@veh0" speed="5.00" pos="10.70" lane="-812786139#3_0" slope="0.00"/>
    </timestep>
    <timestep time="137.00">
        <vehicle id="veh0" x="748.27" y="879.26" angle="87.00" type="veh_passenger@veh0" speed="5.00" pos="15.70" lane="-812786139#3_0" slope="0.00"/>
    </timestep>
    <timestep time="138.00">
        <vehicle id="veh0" x="753.26" y="879.52" angle="87.00" type="veh_passenger@veh0" speed="5.00" pos="20.70" lane="-812786139#3_0" slope="0.00"/>
    </timestep>
    <timestep time="139.00">
        <vehicle id="veh0" x="758.26" y="879.79" angle="87.00" type="veh_passenger@veh0" speed="5.00" pos="25.70" lane="-812786139#3_0" slope="0.00"/>
    </timestep>
    <timestep time="140.00">
        <vehicle id="veh0" x="763.25" y="880.05" angle="87.00" type="veh_passenger@veh0" speed="5.00" pos="30.70" lane="-812786139#3_0" slope="0.00"/>
    </timestep>
    <timestep time="141.00">
        <vehicle id="veh0" x="768.24" y="880.31" angle="87.00" type="veh_passenger@veh0" speed="5.00" pos="35.70" lane="-812786139#3_0" slope="0.00"/>
    </timestep>
    <timestep time="142.00">
        <vehicle id="veh0" x="773.23" y="880.56" angle="87.13" type="veh_passenger@veh0" speed="5.00" pos="3.48" lane=":7603095279_2_0" slope="0.00"/>
    </timestep>
    <timestep time="143.00">
        <vehicle id="veh0" x="778.22" y="880.81" angle="87.19" type="veh_passenger@veh0" speed="5.00" pos="8.48" lane=":7603095279_2_0" slope="0.00"/>
    </timestep>
    <timestep time="144.00">
        <vehicle id="veh0" x="783.22" y="881.04" angle="87.32" type="veh_passenger@veh0" speed="5.00" pos="4.09" lane="-812786139#2_0" slope="0.00"/>
    </timestep>
    <timestep time="145.00">
        <vehicle id="veh0" x="788.21" y="881.27" angle="87.34" type="veh_passenger@veh0" speed="5.00" pos="9.09" lane="-812786139#2_0" slope="0.00"/>
    </timestep>
    <timestep time="146.00">
        <vehicle id="veh0" x="793.21" y="881.50" angle="87.34" type="veh_passenger@veh0" speed="5.00" pos="14.09" lane="-812786139#2_0" slope="0.00"/>
    </timestep>
    <timestep time="147.00">