<?xml version="1.0" encoding="UTF-8"?>

<!-- generated on 2024-08-05 17:45:04 by Eclipse SUMO GUI Version 1.20.0
<configuration xmlns:xsi="http://www.w3.org/2001/XMLSchema-instance" xsi:noNamespaceSchemaLocation="http://sumo.dlr.de/xsd/sumoConfiguration.xsd">

    <input>
        <net-file value="C:\Users\FSM\Desktop\sumoTesting\MeasurementTesting\20240805\test.net.xml"/>
        <route-files value="C:\Users\FSM\Desktop\sumoTesting\MeasurementTesting\20240805\test.rou.xml"/>
    </input>

    <output>
        <fcd-output value="C:\Users\FSM\Desktop\sumoTesting\MeasurementTesting\20240805\FCD.xml"/>
        <edgedata-output value="C:\Users\FSM\Desktop\sumoTesting\MeasurementTesting\20240805\edgeOutput.xml"/>
        <lanedata-output value="C:\Users\FSM\Desktop\sumoTesting\MeasurementTesting\20240805\laneOutput.xml"/>
    </output>

</configuration>
-->

<fcd-export xmlns:xsi="http://www.w3.org/2001/XMLSchema-instance" xsi:noNamespaceSchemaLocation="http://sumo.dlr.de/xsd/fcd_file.xsd">
    <timestep time="0.00">
        <vehicle id="0" x="85.79" y="131.01" angle="115.93" type="car" speed="0.00" pos="5.10" lane="e1_0" slope="0.00"/>
    </timestep>
    <timestep time="1.00">
        <vehicle id="0" x="88.26" y="129.81" angle="115.93" type="car" speed="2.75" pos="7.85" lane="e1_0" slope="0.00"/>
    </timestep>
    <timestep time="2.00">
        <vehicle id="0" x="93.55" y="127.24" angle="115.93" type="car" speed="5.88" pos="13.73" lane="e1_0" slope="0.00"/>
    </timestep>
    <timestep time="3.00">
        <vehicle id="0" x="99.87" y="124.16" angle="115.93" type="car" speed="7.03" pos="20.76" lane="e1_0" slope="0.00"/>
        <vehicle id="1" x="85.79" y="131.01" angle="115.93" type="car" speed="0.00" pos="5.10" lane="e1_0" slope="0.00"/>
    </timestep>
    <timestep time="4.00">
        <vehicle id="0" x="106.91" y="120.74" angle="115.93" type="car" speed="7.83" pos="28.59" lane="e1_0" slope="0.00"/>
        <vehicle id="1" x="86.72" y="130.55" angle="115.93" type="car" speed="1.04" pos="6.14" lane="e1_0" slope="0.00"/>
    </timestep>
    <timestep time="5.00">
        <vehicle id="0" x="115.10" y="116.76" angle="115.93" type="car" speed="9.11" pos="37.69" lane="e1_0" slope="0.00"/>
        <vehicle id="1" x="88.10" y="129.88" angle="115.93" type="car" speed="1.53" pos="7.68" lane="e1_0" slope="0.00"/>
    </timestep>
    <timestep time="6.00">
        <vehicle id="0" x="123.16" y="112.84" angle="115.93" type="car" speed="8.96" pos="46.66" lane="e1_0" slope="0.00"/>
        <vehicle id="1" x="89.93" y="128.99" angle="115.93" type="car" speed="2.03" pos="9.71" lane="e1_0" slope="0.00"/>
    </timestep>
    <timestep time="7.00">
        <vehicle id="0" x="131.18" y="108.94" angle="115.93" type="car" speed="8.91" pos="55.57" lane="e1_0" slope="0.00"/>
        <vehicle id="1" x="94.69" y="126.68" angle="115.93" type="car" speed="5.29" pos="15.00" lane="e1_0" slope="0.00"/>
        <vehicle id="test" x="87.59" y="130.14" angle="115.93" type="ev" speed="0.00" pos="7.10" lane="e1_0" slope="0.00"/>
    </timestep>
    <timestep time="8.00">
        <vehicle id="0" x="138.22" y="105.52" angle="115.93" type="car" speed="7.84" pos="63.40" lane="e1_0" slope="0.00"/>
        <vehicle id="1" x="100.11" y="124.05" angle="115.93" type="car" speed="6.02" pos="21.02" lane="e1_0" slope="0.00"/>
        <vehicle id="test" x="87.95" y="129.96" angle="115.93" type="ev" speed="0.40" pos="7.50" lane="e1_0" slope="0.00"/>
    </timestep>
    <timestep time="9.00">
        <vehicle id="0" x="146.30" y="101.59" angle="115.93" type="car" speed="8.97" pos="72.38" lane="e1_0" slope="0.00"/>
        <vehicle id="1" x="106.58" y="120.90" angle="115.93" type="car" speed="7.20" pos="28.22" lane="e1_0" slope="0.00"/>
        <vehicle id="test" x="91.36" y="128.30" angle="115.93" type="ev" speed="3.79" pos="11.30" lane="e1_0" slope="0.00"/>
    </timestep>
    <timestep time="10.00">
        <vehicle id="0" x="152.39" y="98.63" angle="115.93" type="car" speed="6.77" pos="79.15" lane="e1_0" slope="0.00"/>
        <vehicle id="1" x="113.00" y="117.78" angle="115.93" type="car" speed="7.14" pos="35.36" lane="e1_0" slope="0.00"/>
        <vehicle id="2" x="85.79" y="131.01" angle="115.93" type="car" speed="0.00" pos="5.10" lane="e1_0" slope="0.00"/>
        <vehicle id="test" x="96.37" y="125.86" angle="115.93" type="ev" speed="5.57" pos="16.87" lane="e1_0" slope="0.00"/>
    </timestep>
    <timestep time="11.00">
        <vehicle id="0" x="156.50" y="96.63" angle="115.93" type="car" speed="4.57" pos="83.73" lane="e1_0" slope="0.00"/>
        <vehicle id="1" x="121.97" y="113.42" angle="115.93" type="car" speed="9.97" pos="45.33" lane="e1_0" slope="0.00"/>
        <vehicle id="2" x="87.85" y="130.01" angle="115.93" type="car" speed="2.30" pos="7.40" lane="e1_0" slope="0.00"/>
        <vehicle id="test" x="101.71" y="123.27" angle="115.93" type="ev" speed="5.93" pos="22.80" lane="e1_0" slope="0.00"/>
    </timestep>
    <timestep time="12.00">
        <vehicle id="0" x="157.99" y="94.98" angle="126.04" type="car" speed="2.37" pos="1.71" lane=":j2_0_0" slope="0.00"/>
        <vehicle id="1" x="128.95" y="110.02" angle="115.93" type="car" speed="7.77" pos="53.09" lane="e1_0" slope="0.00"/>
        <vehicle id="2" x="90.33" y="128.80" angle="115.93" type="car" speed="2.76" pos="10.15" lane="e1_0" slope="0.00"/>
        <vehicle id="test" x="110.81" y="122.40" angle="115.93" type="ev" speed="8.57" pos="31.37" lane="e1_1" slope="0.00"/>
    </timestep>
    <timestep time="13.00">
        <vehicle id="0" x="158.01" y="91.45" angle="171.48" type="car" speed="3.53" pos="3.45" lane="e2_0" slope="0.00"/>
        <vehicle id="1" x="134.85" y="107.16" angle="115.93" type="car" speed="6.56" pos="59.66" lane="e1_0" slope="0.00"/>
        <vehicle id="2" x="95.06" y="126.50" angle="115.93" type="car" speed="5.26" pos="15.41" lane="e1_0" slope="0.00"/>
        <vehicle id="3" x="85.79" y="131.01" angle="115.93" type="car" speed="0.00" pos="5.10" lane="e1_0" slope="0.00"/>
        <vehicle id="test" x="116.79" y="119.49" angle="115.93" type="ev" speed="6.65" pos="38.02" lane="e1_1" slope="0.00"/>
    </timestep>
    <timestep time="14.00">
        <vehicle id="0" x="158.04" y="84.67" angle="179.78" type="car" speed="6.78" pos="10.23" lane="e2_0" slope="0.00"/>
        <vehicle id="1" x="141.07" y="104.13" angle="115.93" type="car" speed="6.92" pos="66.57" lane="e1_0" slope="0.00"/>
        <vehicle id="2" x="99.84" y="124.18" angle="115.93" type="car" speed="5.31" pos="20.73" lane="e1_0" slope="0.00"/>
        <vehicle id="3" x="88.67" y="129.61" angle="115.93" type="car" speed="3.21" pos="8.31" lane="e1_0" slope="0.00"/>
        <vehicle id="test" x="123.14" y="116.41" angle="115.93" type="ev" speed="7.06" pos="45.07" lane="e1_1" slope="0.00"/>
    </timestep>
    <timestep time="15.00">
        <vehicle id="0" x="158.07" y="75.97" angle="179.78" type="car" speed="8.70" pos="18.93" lane="e2_0" slope="0.00"/>
        <vehicle id="1" x="146.73" y="101.38" angle="115.93" type="car" speed="6.29" pos="72.87" lane="e1_0" slope="0.00"/>
        <vehicle id="2" x="106.07" y="121.15" angle="115.93" type="car" speed="6.92" pos="27.65" lane="e1_0" slope="0.00"/>
        <vehicle id="3" x="90.74" y="128.60" angle="115.93" type="car" speed="2.29" pos="10.60" lane="e1_0" slope="0.00"/>
        <vehicle id="test" x="129.37" y="113.38" angle="115.93" type="ev" speed="6.93" pos="52.00" lane="e1_1" slope="0.00"/>
    </timestep>
    <timestep time="16.00">
        <vehicle id="0" x="158.10" y="69.37" angle="179.78" type="car" speed="6.60" pos="25.53" lane="e2_0" slope="0.00"/>
        <vehicle id="1" x="151.39" y="99.12" angle="115.93" type="car" speed="5.17" pos="78.04" lane="e1_0" slope="0.00"/>
        <vehicle id="2" x="113.18" y="117.69" angle="115.93" type="car" speed="7.91" pos="35.56" lane="e1_0" slope="0.00"/>
        <vehicle id="3" x="94.79" y="126.63" angle="115.93" type="car" speed="4.50" pos="15.11" lane="e1_0" slope="0.00"/>
        <vehicle id="test" x="138.24" y="109.06" angle="115.93" type="ev" speed="9.87" pos="61.87" lane="e1_1" slope="0.00"/>
    </timestep>
    <timestep time="17.00">
        <vehicle id="0" x="158.12" y="61.98" angle="179.78" type="car" speed="7.38" pos="32.92" lane="e2_0" slope="0.00"/>
        <vehicle id="1" x="154.72" y="97.50" angle="115.93" type="car" speed="3.70" pos="81.74" lane="e1_0" slope="0.00"/>
        <vehicle id="2" x="120.59" y="114.09" angle="115.93" type="car" speed="8.24" pos="43.80" lane="e1_0" slope="0.00"/>
        <vehicle id="3" x="99.88" y="124.16" angle="115.93" type="car" speed="5.66" pos="20.77" lane="e1_0" slope="0.00"/>
        <vehicle id="test" x="145.92" y="105.33" angle="115.93" type="ev" speed="8.54" pos="70.41" lane="e1_1" slope="0.00"/>
    </timestep>
    <timestep time="18.00">
        <vehicle id="0" x="158.15" y="55.30" angle="179.78" type="car" speed="6.68" pos="39.60" lane="e2_0" slope="0.00"/>
        <vehicle id="1" x="157.23" y="96.25" angle="116.17" type="car" speed="2.81" pos="0.16" lane=":j2_0_0" slope="0.00"/>
        <vehicle id="2" x="128.38" y="110.30" angle="115.93" type="car" speed="8.66" pos="52.45" lane="e1_0" slope="0.00"/>
        <vehicle id="3" x="106.56" y="120.91" angle="115.93" type="car" speed="7.43" pos="28.20" lane="e1_0" slope="0.00"/>
        <vehicle id="test" x="153.14" y="101.82" angle="115.93" type="ev" speed="8.02" pos="78.43" lane="e1_1" slope="0.00"/>
    </timestep>
    <timestep time="19.00">
        <vehicle id="0" x="158.18" y="46.63" angle="179.78" type="car" speed="8.67" pos="48.27" lane="e2_0" slope="0.00"/>
        <vehicle id="1" x="157.70" y="95.84" angle="118.07" type="car" speed="0.62" pos="0.78" lane=":j2_0_0" slope="0.00"/>
        <vehicle id="2" x="136.10" y="106.55" angle="115.93" type="car" speed="8.59" pos="61.04" lane="e1_0" slope="0.00"/>
        <vehicle id="3" x="112.43" y="118.06" angle="115.93" type="car" speed="6.53" pos="34.73" lane="e1_0" slope="0.00"/>
        <vehicle id="test" x="158.54" y="99.18" angle="115.98" type="ev" speed="6.02" pos="0.05" lane=":j2_0_1" slope="0.00"/>
    </timestep>
    <timestep time="20.00">
        <vehicle id="0" x="158.21" y="37.90" angle="179.78" type="car" speed="8.74" pos="57.00" lane="e2_0" slope="0.00"/>
        <vehicle id="1" x="158.01" y="92.56" angle="157.83" type="car" speed="3.34" pos="2.34" lane="e2_0" slope="0.00"/>
        <vehicle id="2" x="141.84" y="103.76" angle="115.93" type="car" speed="6.39" pos="67.43" lane="e1_0" slope="0.00"/>
        <vehicle id="3" x="118.59" y="115.06" angle="115.93" type="car" speed="6.84" pos="41.57" lane="e1_0" slope="0.00"/>
        <vehicle id="test" x="161.13" y="95.45" angle="135.74" type="ev" speed="4.78" pos="4.83" lane=":j2_0_1" slope="0.00"/>
    </timestep>
    <timestep time="21.00">
        <vehicle id="0" x="158.24" y="31.36" angle="179.78" type="car" speed="6.54" pos="63.54" lane="e2_0" slope="0.00"/>
        <vehicle id="1" x="158.03" y="88.00" angle="179.78" type="car" speed="4.57" pos="6.90" lane="e2_0" slope="0.00"/>
        <vehicle id="2" x="147.35" y="101.08" angle="115.93" type="car" speed="6.13" pos="73.55" lane="e1_0" slope="0.00"/>
        <vehicle id="3" x="127.46" y="114.31" angle="115.93" type="car" speed="8.30" pos="49.87" lane="e1_1" slope="0.00"/>
        <vehicle id="test" x="161.22" y="90.88" angle="172.68" type="ev" speed="4.58" pos="4.04" lane="e2_1" slope="0.00"/>
    </timestep>
    <timestep time="22.00">
        <vehicle id="0" x="158.26" y="24.81" angle="179.78" type="car" speed="6.55" pos="70.09" lane="e2_0" slope="0.00"/>
        <vehicle id="1" x="158.04" y="83.38" angle="179.78" type="car" speed="4.62" pos="11.52" lane="e2_0" slope="0.00"/>
        <vehicle id="2" x="152.81" y="98.42" angle="115.93" type="car" speed="6.07" pos="79.62" lane="e1_0" slope="0.00"/>
        <vehicle id="3" x="136.03" y="110.14" angle="115.93" type="car" speed="9.54" pos="59.41" lane="e1_1" slope="0.00"/>
        <vehicle id="test" x="161.24" y="83.30" angle="179.78" type="ev" speed="7.58" pos="11.62" lane="e2_1" slope="0.00"/>
    </timestep>
    <timestep time="23.00">
        <vehicle id="0" x="158.28" y="20.46" angle="179.78" type="car" speed="4.35" pos="74.44" lane="e2_0" slope="0.00"/>
        <vehicle id="1" x="158.06" y="78.35" angle="179.78" type="car" speed="5.03" pos="16.55" lane="e2_0" slope="0.00"/>
        <vehicle id="2" x="158.07" y="99.42" angle="115.93" type="car" speed="4.29" pos="83.91" lane="e1_1" slope="0.00"/>
        <vehicle id="3" x="142.63" y="106.93" angle="115.93" type="car" speed="7.34" pos="66.75" lane="e1_1" slope="0.00"/>
        <vehicle id="test" x="161.27" y="76.38" angle="179.78" type="ev" speed="6.92" pos="18.54" lane="e2_1" slope="0.00"/>
    </timestep>
    <timestep time="24.00">
        <vehicle id="0" x="158.29" y="18.30" angle="179.78" type="car" speed="2.15" pos="76.60" lane="e2_0" slope="0.00"/>
        <vehicle id="1" x="158.09" y="71.49" angle="179.78" type="car" speed="6.86" pos="23.41" lane="e2_0" slope="0.00"/>
        <vehicle id="2" x="161.13" y="95.46" angle="143.90" type="car" speed="5.31" pos="4.83" lane=":j2_0_1" slope="0.00"/>
        <vehicle id="3" x="147.25" y="104.68" angle="115.93" type="car" speed="5.14" pos="71.88" lane="e1_1" slope="0.00"/>
        <vehicle id="test" x="161.31" y="66.84" angle="179.78" type="ev" speed="9.54" pos="28.08" lane="e2_1" slope="0.00"/>
    </timestep>
    <timestep time="25.00">
        <vehicle id="0" x="155.64" y="15.39" angle="215.73" type="car" speed="4.24" pos="2.21" lane="e3_0" slope="0.00"/>
        <vehicle id="1" x="158.12" y="63.75" angle="179.78" type="car" speed="7.74" pos="31.15" lane="e2_0" slope="0.00"/>
        <vehicle id="2" x="161.22" y="88.81" angle="179.78" type="car" speed="6.66" pos="6.11" lane="e2_1" slope="0.00"/>
        <vehicle id="3" x="153.24" y="101.77" angle="115.93" type="car" speed="6.66" pos="78.54" lane="e1_1" slope="0.00"/>
        <vehicle id="test" x="161.34" y="58.12" angle="179.78" type="ev" speed="8.72" pos="36.80" lane="e2_1" slope="0.00"/>
    </timestep>
    <timestep time="26.00">
        <vehicle id="0" x="149.93" y="11.89" angle="238.51" type="car" speed="6.70" pos="8.91" lane="e3_0" slope="0.00"/>
        <vehicle id="1" x="158.15" y="54.89" angle="179.78" type="car" speed="8.87" pos="40.01" lane="e2_0" slope="0.00"/>
        <vehicle id="2" x="161.26" y="78.92" angle="179.78" type="car" speed="9.88" pos="16.00" lane="e2_1" slope="0.00"/>
        <vehicle id="3" x="157.25" y="99.82" angle="115.93" type="car" speed="4.46" pos="83.00" lane="e1_1" slope="0.00"/>
        <vehicle id="test" x="161.37" y="50.29" angle="179.78" type="ev" speed="7.82" pos="44.62" lane="e2_1" slope="0.00"/>
    </timestep>
    <timestep time="27.00">
        <vehicle id="0" x="141.60" y="6.79" angle="238.51" type="car" speed="9.77" pos="18.68" lane="e3_0" slope="0.00"/>
        <vehicle id="1" x="158.18" y="47.14" angle="179.78" type="car" speed="7.75" pos="47.76" lane="e2_0" slope="0.00"/>
        <vehicle id="2" x="161.29" y="71.24" angle="179.78" type="car" speed="7.68" pos="23.68" lane="e2_1" slope="0.00"/>
        <vehicle id="3" x="161.05" y="96.11" angle="136.34" type="car" speed="5.56" pos="4.17" lane=":j2_0_1" slope="0.00"/>
        <vehicle id="test" x="161.40" y="42.15" angle="179.78" type="ev" speed="8.14" pos="52.76" lane="e2_1" slope="0.00"/>
    </timestep>
    <timestep time="28.00">
        <vehicle id="0" x="133.67" y="1.93" angle="238.51" type="car" speed="9.30" pos="27.98" lane="e3_0" slope="0.00"/>
        <vehicle id="1" x="158.21" y="38.61" angle="179.78" type="car" speed="8.53" pos="56.29" lane="e2_0" slope="0.00"/>
        <vehicle id="2" x="161.32" y="62.12" angle="179.78" type="car" speed="9.12" pos="32.80" lane="e2_1" slope="0.00"/>
        <vehicle id="3" x="161.21" y="92.03" angle="174.64" type="car" speed="4.09" pos="2.89" lane="e2_1" slope="0.00"/>
        <vehicle id="test" x="161.43" y="32.57" angle="179.78" type="ev" speed="9.58" pos="62.35" lane="e2_1" slope="0.00"/>
    </timestep>
    <timestep time="29.00">
        <vehicle id="0" x="125.86" y="-2.85" angle="238.51" type="car" speed="9.16" pos="37.14" lane="e3_0" slope="0.00"/>
        <vehicle id="1" x="158.24" y="32.28" angle="179.78" type="car" speed="6.33" pos="62.62" lane="e2_0" slope="0.00"/>
        <vehicle id="2" x="161.35" y="53.77" angle="179.78" type="car" speed="8.35" pos="41.14" lane="e2_1" slope="0.00"/>
        <vehicle id="3" x="161.23" y="87.53" angle="179.78" type="car" speed="4.50" pos="7.39" lane="e2_1" slope="0.00"/>
        <vehicle id="test" x="161.46" y="24.63" angle="179.78" type="ev" speed="7.94" pos="70.29" lane="e2_1" slope="0.00"/>
    </timestep>
    <timestep time="30.00">
        <vehicle id="0" x="117.95" y="-7.70" angle="238.51" type="car" speed="9.28" pos="46.42" lane="e3_0" slope="0.00"/>
        <vehicle id="1" x="158.26" y="24.64" angle="179.78" type="car" speed="7.64" pos="70.26" lane="e2_0" slope="0.00"/>
        <vehicle id="2" x="161.39" y="43.91" angle="179.78" type="car" speed="9.86" pos="51.00" lane="e2_1" slope="0.00"/>
        <vehicle id="3" x="161.25" y="82.20" angle="179.78" type="car" speed="5.33" pos="12.72" lane="e2_1" slope="0.00"/>
        <vehicle id="test" x="161.49" y="18.28" angle="179.78" type="ev" speed="6.34" pos="76.63" lane="e2_1" slope="0.00"/>
    </timestep>
    <timestep time="31.00">
        <vehicle id="0" x="111.22" y="-11.82" angle="238.51" type="car" speed="7.89" pos="54.30" lane="e3_0" slope="0.00"/>
        <vehicle id="1" x="158.29" y="19.20" angle="179.78" type="car" speed="5.44" pos="75.70" lane="e2_0" slope="0.00"/>
        <vehicle id="2" x="164.62" y="36.27" angle="179.78" type="car" speed="7.66" pos="58.66" lane="e2_2" slope="0.00"/>
        <vehicle id="3" x="161.28" y="74.64" angle="179.78" type="car" speed="7.55" pos="20.27" lane="e2_1" slope="0.00"/>
        <vehicle id="test" x="159.48" y="14.04" angle="197.55" type="ev" speed="4.92" pos="4.57" lane=":j3_0_1" slope="0.00"/>
    </timestep>
    <timestep time="32.00">
        <vehicle id="0" x="105.54" y="-15.30" angle="238.51" type="car" speed="6.66" pos="60.96" lane="e3_0" slope="0.00"/>
        <vehicle id="1" x="157.25" y="16.38" angle="192.61" type="car" speed="3.24" pos="0.32" lane="e3_0" slope="0.00"/>
        <vehicle id="2" x="164.66" y="26.48" angle="179.78" type="car" speed="9.79" pos="68.45" lane="e2_2" slope="0.00"/>
        <vehicle id="3" x="161.31" y="66.01" angle="179.78" type="car" speed="8.63" pos="28.90" lane="e2_1" slope="0.00"/>
        <vehicle id="test" x="154.31" y="10.82" angle="237.33" type="ev" speed="6.10" pos="5.74" lane="e3_1" slope="0.00"/>
    </timestep>
    <timestep time="33.00">
        <vehicle id="0" x="98.98" y="-19.31" angle="238.51" type="car" speed="7.69" pos="68.65" lane="e3_0" slope="0.00"/>
        <vehicle id="1" x="154.32" y="14.58" angle="233.26" type="car" speed="3.44" pos="3.76" lane="e3_0" slope="0.00"/>
        <vehicle id="2" x="164.69" y="18.89" angle="179.78" type="car" speed="7.59" pos="76.04" lane="e2_2" slope="0.00"/>
        <vehicle id="3" x="158.14" y="57.54" angle="179.78" type="car" speed="8.45" pos="37.36" lane="e2_0" slope="0.00"/>
        <vehicle id="test" x="147.99" y="6.95" angle="238.51" type="ev" speed="7.41" pos="13.15" lane="e3_1" slope="0.00"/>
    </timestep>
    <timestep time="34.00">
        <vehicle id="0" x="92.49" y="-23.29" angle="238.51" type="car" speed="7.61" pos="76.27" lane="e3_0" slope="0.00"/>
        <vehicle id="1" x="150.89" y="8.73" angle="238.51" type="car" speed="5.98" pos="9.74" lane="e3_1" slope="0.00"/>
        <vehicle id="2" x="163.29" y="13.37" angle="196.60" type="car" speed="5.81" pos="4.87" lane=":j3_0_2" slope="0.00"/>
        <vehicle id="3" x="158.18" y="48.24" angle="179.78" type="car" speed="9.30" pos="46.66" lane="e2_0" slope="0.00"/>
        <vehicle id="test" x="139.23" y="5.34" angle="238.51" type="ev" speed="8.31" pos="21.46" lane="e3_0" slope="0.00"/>
    </timestep>
    <timestep time="35.00">
        <vehicle id="0" x="87.32" y="-26.46" angle="238.51" type="car" speed="6.06" pos="82.33" lane="e3_0" slope="0.00"/>
        <vehicle id="1" x="144.82" y="5.01" angle="238.51" type="car" speed="7.12" pos="16.87" lane="e3_1" slope="0.00"/>
        <vehicle id="2" x="157.46" y="9.00" angle="237.22" type="car" speed="7.35" pos="4.00" lane="e3_2" slope="0.00"/>
        <vehicle id="3" x="158.20" y="40.67" angle="179.78" type="car" speed="7.57" pos="54.23" lane="e2_0" slope="0.00"/>
        <vehicle id="test" x="131.93" y="0.87" angle="238.51" type="ev" speed="8.56" pos="30.02" lane="e3_0" slope="0.00"/>
    </timestep>
    <timestep time="36.00">
        <vehicle id="0" x="83.90" y="-28.55" angle="238.51" type="car" speed="4.02" pos="86.34" lane="e3_0" slope="0.00"/>
        <vehicle id="1" x="137.92" y="0.78" angle="238.51" type="car" speed="8.10" pos="24.96" lane="e3_1" slope="0.00"/>
        <vehicle id="2" x="149.42" y="4.07" angle="238.51" type="car" speed="9.43" pos="13.43" lane="e3_2" slope="0.00"/>
        <vehicle id="3" x="158.23" y="34.13" angle="179.78" type="car" speed="6.54" pos="60.77" lane="e2_0" slope="0.00"/>
        <vehicle id="test" x="125.28" y="-3.20" angle="238.51" type="ev" speed="7.80" pos="37.81" lane="e3_0" slope="0.00"/>
    </timestep>
    <timestep time="37.00">
        <vehicle id="0" x="82.35" y="-29.50" angle="238.51" type="car" speed="1.82" pos="88.16" lane="e3_0" slope="0.00"/>
        <vehicle id="1" x="130.35" y="-3.85" angle="238.51" type="car" speed="8.87" pos="33.83" lane="e3_1" slope="0.00"/>
        <vehicle id="2" x="143.25" y="0.29" angle="238.51" type="car" speed="7.23" pos="20.67" lane="e3_2" slope="0.00"/>
        <vehicle id="3" x="158.25" y="28.69" angle="179.78" type="car" speed="5.44" pos="66.21" lane="e2_0" slope="0.00"/>
        <vehicle id="test" x="116.84" y="-8.37" angle="238.51" type="ev" speed="9.90" pos="47.71" lane="e3_0" slope="0.00"/>
    </timestep>
    <timestep time="38.00">
        <vehicle id="0" x="79.52" y="-29.34" angle="259.41" type="car" speed="3.10" pos="0.91" lane="e4_0" slope="0.00"/>
        <vehicle id="1" x="122.18" y="-8.86" angle="238.51" type="car" speed="9.59" pos="43.42" lane="e3_1" slope="0.00"/>
        <vehicle id="2" x="136.59" y="-3.79" angle="238.51" type="car" speed="7.81" pos="28.48" lane="e3_2" slope="0.00"/>
        <vehicle id="3" x="158.27" y="23.81" angle="179.78" type="car" speed="4.88" pos="71.09" lane="e2_0" slope="0.00"/>
        <vehicle id="test" x="110.28" y="-12.39" angle="238.51" type="ev" speed="7.70" pos="55.40" lane="e3_0" slope="0.00"/>
    </timestep>
    <timestep time="39.00">
        <vehicle id="0" x="75.73" y="-27.21" angle="299.33" type="car" speed="4.35" pos="5.26" lane="e4_0" slope="0.00"/>
        <vehicle id="1" x="115.88" y="-12.72" angle="238.51" type="car" speed="7.39" pos="50.81" lane="e3_1" slope="0.00"/>
        <vehicle id="2" x="129.22" y="-8.30" angle="238.51" type="car" speed="8.64" pos="37.12" lane="e3_2" slope="0.00"/>
        <vehicle id="3" x="158.29" y="19.11" angle="179.78" type="car" speed="4.70" pos="75.79" lane="e2_0" slope="0.00"/>
        <vehicle id="test" x="101.83" y="-17.57" angle="238.51" type="ev" speed="9.91" pos="65.32" lane="e3_0" slope="0.00"/>
    </timestep>
    <timestep time="40.00">
        <vehicle id="0" x="69.18" y="-23.53" angle="299.33" type="car" speed="7.52" pos="12.78" lane="e4_0" slope="0.00"/>
        <vehicle id="1" x="107.39" y="-17.92" angle="238.51" type="car" speed="9.95" pos="60.76" lane="e3_1" slope="0.00"/>
        <vehicle id="2" x="123.19" y="-12.00" angle="238.51" type="car" speed="7.08" pos="44.19" lane="e3_2" slope="0.00"/>
        <vehicle id="3" x="157.79" y="16.75" angle="185.75" type="car" speed="2.50" pos="1.31" lane=":j3_0_0" slope="0.00"/>
        <vehicle id="test" x="95.25" y="-21.60" angle="238.51" type="ev" speed="7.71" pos="73.03" lane="e3_0" slope="0.00"/>
    </timestep>
    <timestep time="41.00">
        <vehicle id="0" x="61.97" y="-19.48" angle="299.33" type="car" speed="8.27" pos="21.05" lane="e4_0" slope="0.00"/>
        <vehicle id="1" x="99.77" y="-22.59" angle="238.51" type="car" speed="8.94" pos="69.70" lane="e3_1" slope="0.00"/>
        <vehicle id="2" x="114.76" y="-17.16" angle="238.51" type="car" speed="9.88" pos="54.07" lane="e3_2" slope="0.00"/>
        <vehicle id="3" x="155.60" y="15.37" angle="216.37" type="car" speed="2.59" pos="2.26" lane="e3_0" slope="0.00"/>
        <vehicle id="test" x="89.32" y="-25.23" angle="238.51" type="ev" speed="6.96" pos="79.99" lane="e3_0" slope="0.00"/>
    </timestep>
    <timestep time="42.00">
        <vehicle id="0" x="53.64" y="-14.80" angle="299.33" type="car" speed="9.55" pos="30.60" lane="e4_0" slope="0.00"/>
        <vehicle id="1" x="94.02" y="-26.11" angle="238.51" type="car" speed="6.74" pos="76.44" lane="e3_1" slope="0.00"/>
        <vehicle id="2" x="108.22" y="-21.17" angle="238.51" type="car" speed="7.68" pos="61.75" lane="e3_2" slope="0.00"/>
        <vehicle id="3" x="153.32" y="13.97" angle="238.42" type="car" speed="2.67" pos="4.93" lane="e3_0" slope="0.00"/>
        <vehicle id="test" x="84.99" y="-27.89" angle="238.51" type="ev" speed="5.08" pos="85.06" lane="e3_0" slope="0.00"/>
    </timestep>
    <timestep time="43.00">
        <vehicle id="0" x="47.23" y="-11.20" angle="299.33" type="car" speed="7.35" pos="37.95" lane="e4_0" slope="0.00"/>
        <vehicle id="1" x="88.83" y="-29.29" angle="238.51" type="car" speed="6.09" pos="82.53" lane="e3_1" slope="0.00"/>
        <vehicle id="2" x="100.01" y="-26.20" angle="238.51" type="car" speed="9.62" pos="71.38" lane="e3_2" slope="0.00"/>
        <vehicle id="3" x="150.23" y="12.08" angle="238.51" type="car" speed="3.62" pos="8.55" lane="e3_0" slope="0.00"/>
        <vehicle id="test" x="82.53" y="-29.39" angle="238.51" type="ev" speed="2.88" pos="87.94" lane="e3_0" slope="0.00"/>
    </timestep>
    <timestep time="44.00">
        <vehicle id="0" x="41.30" y="-7.86" angle="299.33" type="car" speed="6.81" pos="44.76" lane="e4_0" slope="0.00"/>
        <vehicle id="1" x="84.36" y="-32.03" angle="238.51" type="car" speed="5.25" pos="87.77" lane="e3_1" slope="0.00"/>
        <vehicle id="2" x="93.11" y="-30.42" angle="238.51" type="car" speed="8.09" pos="79.47" lane="e3_2" slope="0.00"/>
        <vehicle id="3" x="145.31" y="9.07" angle="238.51" type="car" speed="5.77" pos="14.33" lane="e3_0" slope="0.00"/>
        <vehicle id="test" x="81.72" y="-29.86" angle="238.71" type="ev" speed="0.94" pos="0.24" lane=":j4_0_0" slope="0.00"/>
    </timestep>
    <timestep time="45.00">
        <vehicle id="0" x="35.16" y="-4.42" angle="299.33" type="car" speed="7.04" pos="51.79" lane="e4_0" slope="0.00"/>
        <vehicle id="1" x="79.11" y="-32.73" angle="265.31" type="car" speed="5.59" pos="4.72" lane=":j4_0_1" slope="0.00"/>
        <vehicle id="2" x="87.30" y="-33.98" angle="238.51" type="car" speed="6.81" pos="86.28" lane="e3_2" slope="0.00"/>
        <vehicle id="3" x="139.45" y="5.48" angle="238.51" type="car" speed="6.87" pos="21.20" lane="e3_0" slope="0.00"/>
        <vehicle id="test" x="78.28" y="-28.64" angle="266.01" type="ev" speed="3.80" pos="2.34" lane="e4_0" slope="0.00"/>
    </timestep>
    <timestep time="46.00">
        <vehicle id="0" x="26.75" y="0.31" angle="299.33" type="car" speed="9.64" pos="61.44" lane="e4_0" slope="0.00"/>
        <vehicle id="1" x="75.39" y="-30.69" angle="297.82" type="car" speed="4.25" pos="3.86" lane="e4_1" slope="0.00"/>
        <vehicle id="2" x="80.44" y="-36.38" angle="256.77" type="car" speed="7.45" pos="5.08" lane=":j4_0_2" slope="0.00"/>
        <vehicle id="3" x="131.06" y="0.33" angle="238.51" type="car" speed="9.85" pos="31.04" lane="e3_0" slope="0.00"/>
        <vehicle id="test" x="73.71" y="-26.07" angle="299.33" type="ev" speed="5.25" pos="7.58" lane="e4_0" slope="0.00"/>
    </timestep>
    <timestep time="47.00">
        <vehicle id="0" x="18.04" y="5.20" angle="299.33" type="car" speed="9.99" pos="71.43" lane="e4_0" slope="0.00"/>
        <vehicle id="1" x="70.05" y="-27.69" angle="299.34" type="car" speed="6.12" pos="9.98" lane="e4_1" slope="0.00"/>
        <vehicle id="2" x="75.50" y="-34.43" angle="292.60" type="car" speed="5.36" pos="1.93" lane="e4_2" slope="0.00"/>
        <vehicle id="3" x="122.67" y="-4.80" angle="238.51" type="car" speed="9.83" pos="40.87" lane="e3_0" slope="0.00"/>
        <vehicle id="test" x="67.04" y="-22.33" angle="299.33" type="ev" speed="7.65" pos="15.23" lane="e4_0" slope="0.00"/>
    </timestep>
    <timestep time="48.00">
        <vehicle id="0" x="11.25" y="9.02" angle="299.33" type="car" speed="7.79" pos="79.22" lane="e4_0" slope="0.00"/>
        <vehicle id="1" x="64.40" y="-24.52" angle="299.34" type="car" speed="6.48" pos="16.46" lane="e4_1" slope="0.00"/>
        <vehicle id="2" x="70.81" y="-31.79" angle="299.34" type="car" speed="5.38" pos="7.31" lane="e4_2" slope="0.00"/>
        <vehicle id="3" x="116.17" y="-8.79" angle="238.51" type="car" speed="7.63" pos="48.50" lane="e3_0" slope="0.00"/>
        <vehicle id="test" x="60.63" y="-18.72" angle="299.33" type="ev" speed="7.36" pos="22.59" lane="e4_0" slope="0.00"/>
    </timestep>
    <timestep time="49.00">
        <vehicle id="0" x="5.78" y="12.10" angle="299.33" type="car" speed="6.28" pos="85.50" lane="e4_0" slope="0.00"/>
        <vehicle id="1" x="56.10" y="-19.85" angle="299.34" type="car" speed="9.53" pos="25.98" lane="e4_1" slope="0.00"/>
        <vehicle id="2" x="65.28" y="-28.68" angle="299.34" type="car" speed="6.34" pos="13.65" lane="e4_2" slope="0.00"/>
        <vehicle id="3" x="108.83" y="-13.28" angle="238.51" type="car" speed="8.60" pos="57.11" lane="e3_0" slope="0.00"/>
        <vehicle id="test" x="52.72" y="-14.28" angle="299.33" type="ev" speed="9.07" pos="31.66" lane="e4_0" slope="0.00"/>
    </timestep>