<?xml version="1.0" encoding="UTF-8"?>

<!-- generated on 2024-08-09 15:33:08 by Eclipse SUMO GUI Version 1.20.0
<configuration xmlns:xsi="http://www.w3.org/2001/XMLSchema-instance" xsi:noNamespaceSchemaLocation="http://sumo.dlr.de/xsd/sumoConfiguration.xsd">

    <input>
        <net-file value="test.net.xml"/>
        <route-files value="test.rou.xml"/>
    </input>

    <output>
        <fcd-output value="FCD.xml"/>
        <edgedata-output value="edgeOutput.xml"/>
        <lanedata-output value="laneOutput.xml"/>
    </output>

    <traci_server>
        <remote-port value="61561"/>
    </traci_server>

</configuration>
-->

<fcd-export xmlns:xsi="http://www.w3.org/2001/XMLSchema-instance" xsi:noNamespaceSchemaLocation="http://sumo.dlr.de/xsd/fcd_file.xsd">
    <timestep time="0.00">
        <vehicle id="0" x="85.79" y="131.01" angle="115.93" type="car" speed="0.00" pos="5.10" lane="e1_0" slope="0.00"/>
    </timestep>
    <timestep time="1.00">
        <vehicle id="0" x="88.26" y="129.81" angle="115.93" type="car" speed="2.75" pos="7.85" lane="e1_0" slope="0.00"/>
    </timestep>
    <timestep time="2.00">
        <vehicle id="0" x="93.55" y="127.24" angle="115.93" type="car" speed="5.88" pos="13.73" lane="e1_0" slope="0.00"/>
    </timestep>
    <timestep time="3.00">
        <vehicle id="0" x="99.87" y="124.16" angle="115.93" type="car" speed="7.03" pos="20.76" lane="e1_0" slope="0.00"/>
        <vehicle id="1" x="85.79" y="131.01" angle="115.93" type="car" speed="0.00" pos="5.10" lane="e1_0" slope="0.00"/>
    </timestep>
    <timestep time="4.00">
        <vehicle id="0" x="106.91" y="120.74" angle="115.93" type="car" speed="7.83" pos="28.59" lane="e1_0" slope="0.00"/>
        <vehicle id="1" x="86.72" y="130.55" angle="115.93" type="car" speed="1.04" pos="6.14" lane="e1_0" slope="0.00"/>
    </timestep>
    <timestep time="5.00">
        <vehicle id="0" x="115.10" y="116.76" angle="115.93" type="car" speed="9.11" pos="37.69" lane="e1_0" slope="0.00"/>
        <vehicle id="1" x="88.10" y="129.88" angle="115.93" type="car" speed="1.53" pos="7.68" lane="e1_0" slope="0.00"/>
    </timestep>
    <timestep time="6.00">
        <vehicle id="0" x="123.16" y="112.84" angle="115.93" type="car" speed="8.96" pos="46.66" lane="e1_0" slope="0.00"/>
        <vehicle id="1" x="89.93" y="128.99" angle="115.93" type="car" speed="2.03" pos="9.71" lane="e1_0" slope="0.00"/>
    </timestep>
    <timestep time="7.00">
        <vehicle id="0" x="131.18" y="108.94" angle="115.93" type="car" speed="8.91" pos="55.57" lane="e1_0" slope="0.00"/>
        <vehicle id="1" x="94.69" y="126.68" angle="115.93" type="car" speed="5.29" pos="15.00" lane="e1_0" slope="0.00"/>
        <vehicle id="test" x="87.59" y="130.14" angle="115.93" type="ev" speed="0.00" pos="7.10" lane="e1_0" slope="0.00"/>
    </timestep>
    <timestep time="8.00">
        <vehicle id="0" x="138.22" y="105.52" angle="115.93" type="car" speed="7.84" pos="63.40" lane="e1_0" slope="0.00"/>
        <vehicle id="1" x="100.11" y="124.05" angle="115.93" type="car" speed="6.02" pos="21.02" lane="e1_0" slope="0.00"/>
        <vehicle id="test" x="87.95" y="129.96" angle="115.93" type="ev" speed="0.40" pos="7.50" lane="e1_0" slope="0.00"/>
    </timestep>
    <timestep time="9.00">
        <vehicle id="0" x="146.30" y="101.59" angle="115.93" type="car" speed="8.97" pos="72.38" lane="e1_0" slope="0.00"/>
        <vehicle id="1" x="106.58" y="120.90" angle="115.93" type="car" speed="7.20" pos="28.22" lane="e1_0" slope="0.00"/>
        <vehicle id="test" x="91.36" y="128.30" angle="115.93" type="ev" speed="3.79" pos="11.30" lane="e1_0" slope="0.00"/>
    </timestep>
    <timestep time="10.00">
        <vehicle id="0" x="152.39" y="98.63" angle="115.93" type="car" speed="6.77" pos="79.15" lane="e1_0" slope="0.00"/>
        <vehicle id="1" x="113.00" y="117.78" angle="115.93" type="car" speed="7.14" pos="35.36" lane="e1_0" slope="0.00"/>
        <vehicle id="2" x="85.79" y="131.01" angle="115.93" type="car" speed="0.00" pos="5.10" lane="e1_0" slope="0.00"/>
        <vehicle id="test" x="96.37" y="125.86" angle="115.93" type="ev" speed="5.57" pos="16.87" lane="e1_0" slope="0.00"/>
    </timestep>
    <timestep time="11.00">
        <vehicle id="0" x="156.50" y="96.63" angle="115.93" type="car" speed="4.57" pos="83.73" lane="e1_0" slope="0.00"/>
        <vehicle id="1" x="121.97" y="113.42" angle="115.93" type="car" speed="9.97" pos="45.33" lane="e1_0" slope="0.00"/>
        <vehicle id="2" x="87.85" y="130.01" angle="115.93" type="car" speed="2.30" pos="7.40" lane="e1_0" slope="0.00"/>
        <vehicle id="test" x="101.71" y="123.27" angle="115.93" type="ev" speed="5.93" pos="22.80" lane="e1_0" slope="0.00"/>
    </timestep>
    <timestep time="12.00">
        <vehicle id="0" x="157.99" y="94.98" angle="126.04" type="car" speed="2.37" pos="1.71" lane=":j2_0_0" slope="0.00"/>
        <vehicle id="1" x="128.95" y="110.02" angle="115.93" type="car" speed="7.77" pos="53.09" lane="e1_0" slope="0.00"/>
        <vehicle id="2" x="90.33" y="128.80" angle="115.93" type="car" speed="2.76" pos="10.15" lane="e1_0" slope="0.00"/>
        <vehicle id="test" x="109.41" y="119.52" angle="115.93" type="ev" speed="8.57" pos="31.37" lane="e1_0" slope="0.00"/>
    </timestep>
    <timestep time="13.00">
        <vehicle id="0" x="158.01" y="91.45" angle="171.48" type="car" speed="3.53" pos="3.45" lane="e2_0" slope="0.00"/>
        <vehicle id="1" x="134.85" y="107.16" angle="115.93" type="car" speed="6.56" pos="59.66" lane="e1_0" slope="0.00"/>
        <vehicle id="2" x="93.94" y="127.05" angle="115.93" type="car" speed="4.01" pos="14.16" lane="e1_0" slope="0.00"/>
        <vehicle id="3" x="85.79" y="131.01" angle="115.93" type="car" speed="0.00" pos="5.10" lane="e1_0" slope="0.00"/>
        <vehicle id="test" x="116.85" y="115.91" angle="115.93" type="ev" speed="8.27" pos="39.64" lane="e1_0" slope="0.00"/>
    </timestep>
    <timestep time="14.00">
        <vehicle id="0" x="158.04" y="84.67" angle="179.78" type="car" speed="6.78" pos="10.23" lane="e2_0" slope="0.00"/>
        <vehicle id="1" x="139.99" y="104.66" angle="115.93" type="car" speed="5.71" pos="65.36" lane="e1_0" slope="0.00"/>
        <vehicle id="2" x="99.03" y="124.57" angle="115.93" type="car" speed="5.66" pos="19.82" lane="e1_0" slope="0.00"/>
        <vehicle id="3" x="86.94" y="130.45" angle="115.93" type="car" speed="1.28" pos="6.38" lane="e1_0" slope="0.00"/>
        <vehicle id="test" x="123.84" y="112.51" angle="115.93" type="ev" speed="7.77" pos="47.41" lane="e1_0" slope="0.00"/>
    </timestep>
    <timestep time="15.00">
        <vehicle id="0" x="158.07" y="75.97" angle="179.78" type="car" speed="8.70" pos="18.93" lane="e2_0" slope="0.00"/>
        <vehicle id="1" x="145.07" y="102.19" angle="115.93" type="car" speed="5.65" pos="71.02" lane="e1_0" slope="0.00"/>
        <vehicle id="2" x="105.39" y="121.48" angle="115.93" type="car" speed="7.08" pos="26.90" lane="e1_0" slope="0.00"/>
        <vehicle id="3" x="90.08" y="128.92" angle="115.93" type="car" speed="3.49" pos="9.88" lane="e1_0" slope="0.00"/>
        <vehicle id="test" x="128.85" y="110.07" angle="115.93" type="ev" speed="5.57" pos="52.98" lane="e1_0" slope="0.00"/>
    </timestep>
    <timestep time="16.00">
        <vehicle id="0" x="158.10" y="69.37" angle="179.78" type="car" speed="6.60" pos="25.53" lane="e2_0" slope="0.00"/>
        <vehicle id="1" x="150.06" y="99.76" angle="115.93" type="car" speed="5.55" pos="76.56" lane="e1_0" slope="0.00"/>
        <vehicle id="2" x="111.01" y="118.75" angle="115.93" type="car" speed="6.24" pos="33.14" lane="e1_0" slope="0.00"/>
        <vehicle id="3" x="95.53" y="126.27" angle="115.93" type="car" speed="6.06" pos="15.93" lane="e1_0" slope="0.00"/>
        <vehicle id="test" x="133.66" y="107.74" angle="115.93" type="ev" speed="5.35" pos="58.33" lane="e1_0" slope="0.00"/>
    </timestep>
    <timestep time="17.00">
        <vehicle id="0" x="158.12" y="61.98" angle="179.78" type="car" speed="7.38" pos="32.92" lane="e2_0" slope="0.00"/>
        <vehicle id="1" x="154.20" y="97.75" angle="115.93" type="car" speed="4.60" pos="81.17" lane="e1_0" slope="0.00"/>
        <vehicle id="2" x="117.65" y="115.52" angle="115.93" type="car" speed="7.39" pos="40.53" lane="e1_0" slope="0.00"/>
        <vehicle id="3" x="99.00" y="124.59" angle="115.93" type="car" speed="3.86" pos="19.79" lane="e1_0" slope="0.00"/>
        <vehicle id="test" x="138.49" y="105.39" angle="115.93" type="ev" speed="5.37" pos="63.70" lane="e1_0" slope="0.00"/>
    </timestep>
    <timestep time="18.00">
        <vehicle id="0" x="158.15" y="55.30" angle="179.78" type="car" speed="6.68" pos="39.60" lane="e2_0" slope="0.00"/>
        <vehicle id="1" x="156.36" y="96.70" angle="115.93" type="car" speed="2.40" pos="83.57" lane="e1_0" slope="0.00"/>
        <vehicle id="2" x="123.85" y="112.50" angle="115.93" type="car" speed="6.89" pos="47.42" lane="e1_0" slope="0.00"/>
        <vehicle id="3" x="104.71" y="121.81" angle="115.93" type="car" speed="6.35" pos="26.14" lane="e1_0" slope="0.00"/>
        <vehicle id="test" x="141.40" y="103.97" angle="115.93" type="ev" speed="3.23" pos="66.93" lane="e1_0" slope="0.00"/>
    </timestep>
    <timestep time="19.00">
        <vehicle id="0" x="158.18" y="46.63" angle="179.78" type="car" speed="8.67" pos="48.27" lane="e2_0" slope="0.00"/>
        <vehicle id="1" x="158.00" y="94.22" angle="135.43" type="car" speed="3.29" pos="0.68" lane="e2_0" slope="0.00"/>
        <vehicle id="2" x="128.08" y="110.45" angle="115.93" type="car" speed="4.69" pos="52.12" lane="e1_0" slope="0.00"/>
        <vehicle id="3" x="110.58" y="118.96" angle="115.93" type="car" speed="6.52" pos="32.66" lane="e1_0" slope="0.00"/>
        <vehicle id="test" x="145.74" y="101.86" angle="115.93" type="ev" speed="4.83" pos="71.76" lane="e1_0" slope="0.00"/>
    </timestep>
    <timestep time="20.00">
        <vehicle id="0" x="158.21" y="37.90" angle="179.78" type="car" speed="8.74" pos="57.00" lane="e2_0" slope="0.00"/>
        <vehicle id="1" x="158.02" y="90.82" angle="176.99" type="car" speed="3.40" pos="4.08" lane="e2_0" slope="0.00"/>
        <vehicle id="2" x="132.68" y="108.21" angle="115.93" type="car" speed="5.12" pos="57.23" lane="e1_0" slope="0.00"/>
        <vehicle id="3" x="114.50" y="117.05" angle="115.93" type="car" speed="4.37" pos="37.03" lane="e1_0" slope="0.00"/>
        <vehicle id="test" x="149.55" y="100.01" angle="115.93" type="ev" speed="4.23" pos="75.99" lane="e1_0" slope="0.00"/>
    </timestep>
    <timestep time="21.00">
        <vehicle id="0" x="158.24" y="31.32" angle="179.78" type="car" speed="6.58" pos="63.58" lane="e2_0" slope="0.00"/>
        <vehicle id="1" x="158.04" y="85.19" angle="179.78" type="car" speed="5.63" pos="9.71" lane="e2_0" slope="0.00"/>
        <vehicle id="2" x="137.72" y="105.76" angle="115.93" type="car" speed="5.61" pos="62.84" lane="e1_0" slope="0.00"/>
        <vehicle id="3" x="120.91" y="113.93" angle="115.93" type="car" speed="7.12" pos="44.15" lane="e1_0" slope="0.00"/>
        <vehicle id="test" x="151.49" y="99.07" angle="115.93" type="ev" speed="2.16" pos="78.15" lane="e1_0" slope="0.00"/>
    </timestep>
    <timestep time="22.00">
        <vehicle id="0" x="158.26" y="26.93" angle="179.78" type="car" speed="4.38" pos="67.97" lane="e2_0" slope="0.00"/>
        <vehicle id="1" x="158.06" y="78.89" angle="179.78" type="car" speed="6.30" pos="16.01" lane="e2_0" slope="0.00"/>
        <vehicle id="2" x="140.78" y="104.27" angle="115.93" type="car" speed="3.41" pos="66.25" lane="e1_0" slope="0.00"/>
        <vehicle id="3" x="125.62" y="111.64" angle="115.93" type="car" speed="5.23" pos="49.39" lane="e1_0" slope="0.00"/>
        <vehicle id="test" x="155.12" y="97.30" angle="115.93" type="ev" speed="4.04" pos="82.19" lane="e1_0" slope="0.00"/>
    </timestep>
    <timestep time="23.00">
        <vehicle id="0" x="158.27" y="23.55" angle="179.78" type="car" speed="3.38" pos="71.35" lane="e2_0" slope="0.00"/>
        <vehicle id="1" x="158.09" y="71.36" angle="179.78" type="car" speed="7.53" pos="23.54" lane="e2_0" slope="0.00"/>
        <vehicle id="2" x="143.31" y="103.05" angle="115.93" type="car" speed="2.81" pos="69.06" lane="e1_0" slope="0.00"/>
        <vehicle id="3" x="130.07" y="109.48" angle="115.93" type="car" speed="4.94" pos="54.33" lane="e1_0" slope="0.00"/>
        <vehicle id="test" x="157.69" y="95.85" angle="117.44" type="ev" speed="2.98" pos="0.78" lane=":j2_0_0" slope="0.00"/>
    </timestep>
    <timestep time="24.00">
        <vehicle id="0" x="158.28" y="19.58" angle="179.78" type="car" speed="3.97" pos="75.32" lane="e2_0" slope="0.00"/>
        <vehicle id="1" x="158.13" y="61.40" angle="179.78" type="car" speed="9.96" pos="33.50" lane="e2_0" slope="0.00"/>
        <vehicle id="2" x="146.68" y="101.41" angle="115.93" type="car" speed="3.75" pos="72.80" lane="e1_0" slope="0.00"/>
        <vehicle id="3" x="134.12" y="107.51" angle="115.93" type="car" speed="4.50" pos="58.84" lane="e1_0" slope="0.00"/>
        <vehicle id="test" x="157.99" y="95.00" angle="122.89" type="ev" speed="0.91" pos="1.69" lane=":j2_0_0" slope="0.00"/>
    </timestep>
    <timestep time="25.00">
        <vehicle id="0" x="158.26" y="17.58" angle="180.17" type="car" speed="2.01" pos="0.34" lane=":j3_0_0" slope="0.00"/>
        <vehicle id="1" x="158.16" y="52.53" angle="179.78" type="car" speed="8.87" pos="42.37" lane="e2_0" slope="0.00"/>
        <vehicle id="2" x="148.07" y="100.73" angle="115.93" type="car" speed="1.55" pos="74.35" lane="e1_0" slope="0.00"/>
        <vehicle id="3" x="138.04" y="105.60" angle="115.93" type="car" speed="4.37" pos="63.20" lane="e1_0" slope="0.00"/>
        <vehicle id="test" x="158.01" y="91.37" angle="157.00" type="ev" speed="3.63" pos="3.53" lane="e2_0" slope="0.00"/>
    </timestep>
    <timestep time="26.00">
        <vehicle id="0" x="156.32" y="15.81" angle="205.78" type="car" speed="2.71" pos="1.41" lane="e3_0" slope="0.00"/>
        <vehicle id="1" x="158.19" y="44.89" angle="179.78" type="car" speed="7.64" pos="50.01" lane="e2_0" slope="0.00"/>
        <vehicle id="2" x="150.72" y="99.44" angle="115.93" type="car" speed="2.95" pos="77.30" lane="e1_0" slope="0.00"/>
        <vehicle id="3" x="139.99" y="104.66" angle="115.93" type="car" speed="2.17" pos="65.37" lane="e1_0" slope="0.00"/>
        <vehicle id="test" x="158.03" y="85.70" angle="179.78" type="ev" speed="5.66" pos="9.20" lane="e2_0" slope="0.00"/>
    </timestep>
    <timestep time="27.00">
        <vehicle id="0" x="151.91" y="13.11" angle="238.51" type="car" speed="5.18" pos="6.59" lane="e3_0" slope="0.00"/>
        <vehicle id="1" x="158.21" y="38.67" angle="179.78" type="car" speed="6.23" pos="56.23" lane="e2_0" slope="0.00"/>
        <vehicle id="2" x="155.89" y="96.93" angle="115.93" type="car" speed="5.74" pos="83.04" lane="e1_0" slope="0.00"/>
        <vehicle id="3" x="140.64" y="104.34" angle="115.93" type="car" speed="0.72" pos="66.09" lane="e1_0" slope="0.00"/>
        <vehicle id="test" x="158.07" y="77.08" angle="179.78" type="ev" speed="8.62" pos="17.82" lane="e2_0" slope="0.00"/>
    </timestep>
    <timestep time="28.00">
        <vehicle id="0" x="144.71" y="8.70" angle="238.51" type="car" speed="8.45" pos="15.04" lane="e3_0" slope="0.00"/>
        <vehicle id="1" x="158.24" y="31.86" angle="179.78" type="car" speed="6.81" pos="63.04" lane="e2_0" slope="0.00"/>
        <vehicle id="2" x="158.00" y="94.50" angle="131.87" type="car" speed="3.54" pos="0.40" lane="e2_0" slope="0.00"/>
        <vehicle id="3" x="143.60" y="102.90" angle="115.93" type="car" speed="3.29" pos="69.38" lane="e1_0" slope="0.00"/>
        <vehicle id="test" x="158.10" y="68.92" angle="179.78" type="ev" speed="8.16" pos="25.98" lane="e2_0" slope="0.00"/>
    </timestep>
    <timestep time="29.00">
        <vehicle id="0" x="136.78" y="3.84" angle="238.51" type="car" speed="9.30" pos="24.33" lane="e3_0" slope="0.00"/>
        <vehicle id="1" x="158.27" y="24.49" angle="179.78" type="car" speed="7.37" pos="70.41" lane="e2_0" slope="0.00"/>
        <vehicle id="2" x="158.02" y="90.70" angle="177.62" type="car" speed="3.80" pos="4.20" lane="e2_0" slope="0.00"/>
        <vehicle id="3" x="146.08" y="101.70" angle="115.93" type="car" speed="2.75" pos="72.13" lane="e1_0" slope="0.00"/>
        <vehicle id="test" x="158.13" y="61.35" angle="179.78" type="ev" speed="7.57" pos="33.55" lane="e2_0" slope="0.00"/>
    </timestep>
    <timestep time="30.00">
        <vehicle id="0" x="128.97" y="-0.95" angle="238.51" type="car" speed="9.16" pos="33.49" lane="e3_0" slope="0.00"/>
        <vehicle id="1" x="158.28" y="19.32" angle="179.78" type="car" speed="5.17" pos="75.58" lane="e2_0" slope="0.00"/>
        <vehicle id="2" x="158.04" y="84.59" angle="179.78" type="car" speed="6.11" pos="10.31" lane="e2_0" slope="0.00"/>
        <vehicle id="3" x="151.04" y="99.28" angle="115.93" type="car" speed="5.52" pos="77.66" lane="e1_0" slope="0.00"/>
        <vehicle id="test" x="158.16" y="52.95" angle="179.78" type="ev" speed="8.40" pos="41.95" lane="e2_0" slope="0.00"/>
    </timestep>
    <timestep time="31.00">
        <vehicle id="0" x="121.06" y="-5.79" angle="238.51" type="car" speed="9.28" pos="42.77" lane="e3_0" slope="0.00"/>
        <vehicle id="1" x="157.58" y="16.59" angle="188.34" type="car" speed="2.97" pos="1.58" lane=":j3_0_0" slope="0.00"/>
        <vehicle id="2" x="158.07" y="77.23" angle="179.78" type="car" speed="7.36" pos="17.67" lane="e2_0" slope="0.00"/>
        <vehicle id="3" x="156.59" y="96.59" angle="115.93" type="car" speed="6.17" pos="83.82" lane="e1_0" slope="0.00"/>
        <vehicle id="test" x="158.19" y="45.53" angle="179.78" type="ev" speed="7.42" pos="49.37" lane="e2_0" slope="0.00"/>
    </timestep>
    <timestep time="32.00">
        <vehicle id="0" x="114.33" y="-9.91" angle="238.51" type="car" speed="7.89" pos="50.65" lane="e3_0" slope="0.00"/>
        <vehicle id="1" x="156.12" y="15.69" angle="208.75" type="car" speed="1.72" pos="1.65" lane="e3_0" slope="0.00"/>
        <vehicle id="2" x="158.10" y="69.02" angle="179.78" type="car" speed="8.20" pos="25.88" lane="e2_0" slope="0.00"/>
        <vehicle id="3" x="158.01" y="93.29" angle="148.00" type="car" speed="3.97" pos="1.61" lane="e2_0" slope="0.00"/>
        <vehicle id="test" x="158.21" y="39.47" angle="179.78" type="ev" speed="6.07" pos="55.43" lane="e2_0" slope="0.00"/>
    </timestep>
    <timestep time="33.00">
        <vehicle id="0" x="108.65" y="-13.39" angle="238.51" type="car" speed="6.66" pos="57.31" lane="e3_0" slope="0.00"/>
        <vehicle id="1" x="153.64" y="14.17" angle="237.86" type="car" speed="2.91" pos="4.56" lane="e3_0" slope="0.00"/>
        <vehicle id="2" x="158.13" y="60.26" angle="179.78" type="car" speed="8.76" pos="34.64" lane="e2_0" slope="0.00"/>
        <vehicle id="3" x="158.03" y="87.10" angle="179.78" type="car" speed="6.18" pos="7.80" lane="e2_0" slope="0.00"/>
        <vehicle id="test" x="158.23" y="33.58" angle="179.78" type="ev" speed="5.88" pos="61.32" lane="e2_0" slope="0.00"/>
    </timestep>
    <timestep time="34.00">
        <vehicle id="0" x="102.94" y="-16.89" angle="238.51" type="car" speed="6.70" pos="64.01" lane="e3_0" slope="0.00"/>
        <vehicle id="1" x="149.24" y="11.47" angle="238.51" type="car" speed="5.16" pos="9.72" lane="e3_0" slope="0.00"/>
        <vehicle id="2" x="158.16" y="53.70" angle="179.78" type="car" speed="6.56" pos="41.20" lane="e2_0" slope="0.00"/>
        <vehicle id="3" x="158.06" y="78.50" angle="179.78" type="car" speed="8.61" pos="16.40" lane="e2_0" slope="0.00"/>
        <vehicle id="test" x="158.24" y="29.90" angle="179.78" type="ev" speed="3.68" pos="65.00" lane="e2_0" slope="0.00"/>
    </timestep>
    <timestep time="35.00">
        <vehicle id="0" x="95.23" y="-21.61" angle="238.51" type="car" speed="9.04" pos="73.05" lane="e3_0" slope="0.00"/>
        <vehicle id="1" x="142.91" y="7.59" angle="238.51" type="car" speed="7.42" pos="17.14" lane="e3_0" slope="0.00"/>
        <vehicle id="2" x="158.18" y="48.25" angle="179.78" type="car" speed="5.45" pos="46.65" lane="e2_0" slope="0.00"/>
        <vehicle id="3" x="158.09" y="71.45" angle="179.78" type="car" speed="7.05" pos="23.45" lane="e2_0" slope="0.00"/>
        <vehicle id="test" x="158.26" y="26.14" angle="179.78" type="ev" speed="3.75" pos="68.76" lane="e2_0" slope="0.00"/>
    </timestep>
    <timestep time="36.00">
        <vehicle id="0" x="89.08" y="-25.38" angle="238.51" type="car" speed="7.21" pos="80.26" lane="e3_0" slope="0.00"/>
        <vehicle id="1" x="136.35" y="3.58" angle="238.51" type="car" speed="7.69" pos="24.84" lane="e3_0" slope="0.00"/>
        <vehicle id="2" x="158.19" y="44.80" angle="179.78" type="car" speed="3.45" pos="50.10" lane="e2_0" slope="0.00"/>
        <vehicle id="3" x="158.11" y="65.22" angle="179.78" type="car" speed="6.23" pos="29.68" lane="e2_0" slope="0.00"/>
        <vehicle id="test" x="158.27" y="21.91" angle="179.78" type="ev" speed="4.23" pos="72.99" lane="e2_0" slope="0.00"/>
    </timestep>
    <timestep time="37.00">
        <vehicle id="0" x="84.81" y="-27.99" angle="238.51" type="car" speed="5.01" pos="85.27" lane="e3_0" slope="0.00"/>
        <vehicle id="1" x="130.06" y="-0.28" angle="238.51" type="car" speed="7.38" pos="32.22" lane="e3_0" slope="0.00"/>
        <vehicle id="2" x="158.21" y="38.51" angle="179.78" type="car" speed="6.29" pos="56.39" lane="e2_0" slope="0.00"/>
        <vehicle id="3" x="158.13" y="60.79" angle="179.78" type="car" speed="4.43" pos="34.11" lane="e2_0" slope="0.00"/>
        <vehicle id="test" x="158.29" y="18.86" angle="179.78" type="ev" speed="3.06" pos="76.04" lane="e2_0" slope="0.00"/>
    </timestep>
    <timestep time="38.00">
        <vehicle id="0" x="81.21" y="-30.00" angle="240.49" type="car" speed="4.15" pos="0.76" lane=":j4_0_0" slope="0.00"/>
        <vehicle id="1" x="122.51" y="-4.90" angle="238.51" type="car" speed="8.85" pos="41.07" lane="e3_0" slope="0.00"/>
        <vehicle id="2" x="158.23" y="34.42" angle="179.78" type="car" speed="4.09" pos="60.48" lane="e2_0" slope="0.00"/>
        <vehicle id="3" x="158.15" y="55.53" angle="179.78" type="car" speed="5.26" pos="39.37" lane="e2_0" slope="0.00"/>
        <vehicle id="test" x="158.28" y="17.83" angle="179.85" type="ev" speed="1.02" pos="0.09" lane=":j3_0_0" slope="0.00"/>
    </timestep>
    <timestep time="39.00">
        <vehicle id="0" x="77.65" y="-28.29" angle="286.76" type="car" speed="4.00" pos="3.07" lane="e4_0" slope="0.00"/>
        <vehicle id="1" x="116.62" y="-8.51" angle="238.51" type="car" speed="6.90" pos="47.97" lane="e3_0" slope="0.00"/>
        <vehicle id="2" x="158.24" y="30.26" angle="179.78" type="car" speed="4.16" pos="64.64" lane="e2_0" slope="0.00"/>
        <vehicle id="3" x="158.17" y="50.43" angle="179.78" type="car" speed="5.10" pos="44.47" lane="e2_0" slope="0.00"/>
        <vehicle id="test" x="155.98" y="15.60" angle="201.39" type="ev" speed="3.37" pos="1.82" lane="e3_0" slope="0.00"/>
    </timestep>
    <timestep time="40.00">
        <vehicle id="0" x="73.07" y="-25.72" angle="299.33" type="car" speed="5.25" pos="8.32" lane="e4_0" slope="0.00"/>
        <vehicle id="1" x="108.17" y="-13.69" angle="238.51" type="car" speed="9.91" pos="57.88" lane="e3_0" slope="0.00"/>
        <vehicle id="2" x="158.26" y="25.82" angle="179.78" type="car" speed="4.44" pos="69.08" lane="e2_0" slope="0.00"/>
        <vehicle id="3" x="158.19" y="45.79" angle="179.78" type="car" speed="4.64" pos="49.11" lane="e2_0" slope="0.00"/>
        <vehicle id="test" x="151.67" y="12.96" angle="238.39" type="ev" speed="5.06" pos="6.88" lane="e3_0" slope="0.00"/>
    </timestep>
    <timestep time="41.00">
        <vehicle id="0" x="65.73" y="-21.59" angle="299.33" type="car" speed="8.42" pos="16.73" lane="e4_0" slope="0.00"/>
        <vehicle id="1" x="100.92" y="-18.13" angle="238.51" type="car" speed="8.51" pos="66.39" lane="e3_0" slope="0.00"/>
        <vehicle id="2" x="158.27" y="23.55" angle="179.78" type="car" speed="2.26" pos="71.35" lane="e2_0" slope="0.00"/>
        <vehicle id="3" x="158.21" y="39.63" angle="179.78" type="car" speed="6.16" pos="55.27" lane="e2_0" slope="0.00"/>
        <vehicle id="test" x="145.37" y="9.10" angle="238.51" type="ev" speed="7.39" pos="14.26" lane="e3_0" slope="0.00"/>
    </timestep>
    <timestep time="42.00">
        <vehicle id="0" x="58.52" y="-17.54" angle="299.33" type="car" speed="8.27" pos="25.00" lane="e4_0" slope="0.00"/>
        <vehicle id="1" x="95.54" y="-21.42" angle="238.51" type="car" speed="6.31" pos="72.69" lane="e3_0" slope="0.00"/>
        <vehicle id="2" x="158.28" y="21.03" angle="179.78" type="car" speed="2.52" pos="73.87" lane="e2_0" slope="0.00"/>
        <vehicle id="3" x="158.22" y="35.34" angle="179.78" type="car" speed="4.29" pos="59.56" lane="e2_0" slope="0.00"/>
        <vehicle id="test" x="138.13" y="4.67" angle="238.51" type="ev" speed="8.48" pos="22.74" lane="e3_0" slope="0.00"/>
    </timestep>
    <timestep time="43.00">
        <vehicle id="0" x="50.20" y="-12.86" angle="299.33" type="car" speed="9.55" pos="34.55" lane="e4_0" slope="0.00"/>
        <vehicle id="1" x="90.75" y="-24.36" angle="238.51" type="car" speed="5.61" pos="78.31" lane="e3_0" slope="0.00"/>
        <vehicle id="2" x="158.28" y="17.82" angle="179.89" type="car" speed="3.21" pos="0.10" lane=":j3_0_0" slope="0.00"/>
        <vehicle id="3" x="158.24" y="31.21" angle="179.78" type="car" speed="4.12" pos="63.69" lane="e2_0" slope="0.00"/>
        <vehicle id="test" x="132.26" y="1.07" angle="238.51" type="ev" speed="6.89" pos="29.64" lane="e3_0" slope="0.00"/>
    </timestep>
    <timestep time="44.00">
        <vehicle id="0" x="43.79" y="-9.26" angle="299.33" type="car" speed="7.35" pos="41.90" lane="e4_0" slope="0.00"/>
        <vehicle id="1" x="86.55" y="-26.93" angle="238.51" type="car" speed="4.92" pos="83.23" lane="e3_0" slope="0.00"/>
        <vehicle id="2" x="155.31" y="15.19" angle="220.44" type="car" speed="4.14" pos="2.60" lane="e3_0" slope="0.00"/>
        <vehicle id="3" x="158.25" y="29.29" angle="179.78" type="car" speed="1.92" pos="65.61" lane="e2_0" slope="0.00"/>
        <vehicle id="test" x="125.78" y="-2.90" angle="238.51" type="ev" speed="7.60" pos="37.23" lane="e3_0" slope="0.00"/>
    </timestep>
    <timestep time="45.00">
        <vehicle id="0" x="37.85" y="-5.93" angle="299.33" type="car" speed="6.81" pos="48.71" lane="e4_0" slope="0.00"/>
        <vehicle id="1" x="82.06" y="-29.68" angle="238.51" type="car" speed="5.27" pos="88.50" lane="e3_0" slope="0.00"/>
        <vehicle id="2" x="151.63" y="12.94" angle="238.51" type="car" speed="4.32" pos="6.92" lane="e3_0" slope="0.00"/>
        <vehicle id="3" x="158.26" y="25.24" angle="179.78" type="car" speed="4.05" pos="69.66" lane="e2_0" slope="0.00"/>
        <vehicle id="test" x="117.39" y="-8.04" angle="238.51" type="ev" speed="9.83" pos="47.06" lane="e3_0" slope="0.00"/>
    </timestep>
    <timestep time="46.00">
        <vehicle id="0" x="31.72" y="-2.48" angle="299.33" type="car" speed="7.04" pos="55.74" lane="e4_0" slope="0.00"/>
        <vehicle id="1" x="79.26" y="-29.20" angle="263.24" type="car" speed="3.07" pos="1.21" lane="e4_0" slope="0.00"/>
        <vehicle id="2" x="145.29" y="9.05" angle="238.51" type="car" speed="7.44" pos="14.36" lane="e3_0" slope="0.00"/>
        <vehicle id="3" x="158.27" y="21.97" angle="179.78" type="car" speed="3.27" pos="72.93" lane="e2_0" slope="0.00"/>
        <vehicle id="test" x="110.89" y="-12.02" angle="238.51" type="ev" speed="7.63" pos="54.69" lane="e3_0" slope="0.00"/>
    </timestep>
    <timestep time="47.00">
        <vehicle id="0" x="23.31" y="2.24" angle="299.33" type="car" speed="9.64" pos="65.39" lane="e4_0" slope="0.00"/>
        <vehicle id="1" x="75.33" y="-26.99" angle="299.33" type="car" speed="4.51" pos="5.72" lane="e4_0" slope="0.00"/>
        <vehicle id="2" x="136.82" y="3.86" angle="238.51" type="car" speed="9.93" pos="24.29" lane="e3_0" slope="0.00"/>
        <vehicle id="3" x="158.28" y="20.07" angle="179.78" type="car" speed="1.91" pos="74.83" lane="e2_0" slope="0.00"/>
        <vehicle id="test" x="102.70" y="-17.04" angle="238.51" type="ev" speed="9.61" pos="64.30" lane="e3_0" slope="0.00"/>
    </timestep>
    <timestep time="48.00">
        <vehicle id="0" x="14.60" y="7.14" angle="299.33" type="car" speed="9.99" pos="75.38" lane="e4_0" slope="0.00"/>
        <vehicle id="1" x="69.31" y="-23.60" angle="299.33" type="car" speed="6.91" pos="12.63" lane="e4_0" slope="0.00"/>
        <vehicle id="2" x="129.02" y="-0.91" angle="238.51" type="car" speed="9.14" pos="33.43" lane="e3_0" slope="0.00"/>
        <vehicle id="3" x="157.45" y="16.50" angle="190.02" type="car" speed="3.88" pos="0.09" lane="e3_0" slope="0.00"/>
        <vehicle id="test" x="94.43" y="-22.10" angle="238.51" type="ev" speed="9.69" pos="73.99" lane="e3_0" slope="0.00"/>
    </timestep>
    <timestep time="49.00">
        <vehicle id="0" x="7.81" y="10.96" angle="299.33" type="car" speed="7.79" pos="83.17" lane="e4_0" slope="0.00"/>
        <vehicle id="1" x="62.89" y="-20.00" angle="299.33" type="car" speed="7.36" pos="19.99" lane="e4_0" slope="0.00"/>
        <vehicle id="2" x="122.26" y="-5.06" angle="238.51" type="car" speed="7.93" pos="41.36" lane="e3_0" slope="0.00"/>
        <vehicle id="3" x="151.85" y="13.07" angle="238.51" type="car" speed="6.57" pos="6.66" lane="e3_0" slope="0.00"/>
        <vehicle id="test" x="87.70" y="-26.23" angle="238.51" type="ev" speed="7.89" pos="81.88" lane="e3_0" slope="0.00"/>
    </timestep>
    <timestep time="50.00">
        <vehicle id="0" x="2.93" y="13.70" angle="299.33" type="car" speed="5.59" pos="88.76" lane="e4_0" slope="0.00"/>