<?xml version="1.0" encoding="UTF-8"?>

<!-- generated on 2024-08-09 15:25:33 by Eclipse SUMO GUI Version 1.20.0
<configuration xmlns:xsi="http://www.w3.org/2001/XMLSchema-instance" xsi:noNamespaceSchemaLocation="http://sumo.dlr.de/xsd/sumoConfiguration.xsd">

    <input>
        <net-file value="test.net.xml"/>
        <route-files value="test.rou.xml"/>
    </input>

    <output>
        <fcd-output value="FCD.xml"/>
        <edgedata-output value="edgeOutput.xml"/>
        <lanedata-output value="laneOutput.xml"/>
    </output>

    <traci_server>
        <remote-port value="61221"/>
    </traci_server>

</configuration>
-->

<fcd-export xmlns:xsi="http://www.w3.org/2001/XMLSchema-instance" xsi:noNamespaceSchemaLocation="http://sumo.dlr.de/xsd/fcd_file.xsd">
    <timestep time="0.00">
        <vehicle id="0" x="85.79" y="131.01" angle="115.93" type="car" speed="0.00" pos="5.10" lane="e1_0" slope="0.00"/>
    </timestep>
    <timestep time="1.00">
        <vehicle id="0" x="88.60" y="129.64" angle="115.93" type="car@0" speed="3.13" pos="8.23" lane="e1_0" slope="0.00"/>
    </timestep>
    <timestep time="2.00">
        <vehicle id="0" x="94.39" y="126.83" angle="115.93" type="car@0" speed="6.44" pos="14.67" lane="e1_0" slope="0.00"/>
    </timestep>
    <timestep time="3.00">
        <vehicle id="0" x="102.27" y="122.99" angle="115.93" type="car@0" speed="8.76" pos="23.43" lane="e1_0" slope="0.00"/>
        <vehicle id="1" x="85.79" y="131.01" angle="115.93" type="car" speed="0.00" pos="5.10" lane="e1_0" slope="0.00"/>
    </timestep>
    <timestep time="4.00">
        <vehicle id="0" x="110.29" y="119.10" angle="115.93" type="car@0" speed="8.91" pos="32.34" lane="e1_0" slope="0.00"/>
        <vehicle id="1" x="87.83" y="130.02" angle="115.93" type="car@1" speed="2.27" pos="7.37" lane="e1_0" slope="0.00"/>
    </timestep>
    <timestep time="5.00">
        <vehicle id="0" x="118.88" y="114.92" angle="115.93" type="car@0" speed="9.55" pos="41.90" lane="e1_0" slope="0.00"/>
        <vehicle id="1" x="91.67" y="128.15" angle="115.93" type="car@1" speed="4.27" pos="11.64" lane="e1_0" slope="0.00"/>
    </timestep>
    <timestep time="6.00">
        <vehicle id="0" x="127.41" y="110.77" angle="115.93" type="car@0" speed="9.48" pos="51.38" lane="e1_0" slope="0.00"/>
        <vehicle id="1" x="97.30" y="125.41" angle="115.93" type="car@1" speed="6.27" pos="17.91" lane="e1_0" slope="0.00"/>
        <vehicle id="test" x="87.59" y="130.14" angle="115.93" type="ev" speed="0.00" pos="7.10" lane="e1_0" slope="0.00"/>
    </timestep>
    <timestep time="7.00">
        <vehicle id="0" x="135.91" y="106.64" angle="115.93" type="car@0" speed="9.45" pos="60.83" lane="e1_0" slope="0.00"/>
        <vehicle id="1" x="105.98" y="121.19" angle="115.93" type="car@1" speed="9.64" pos="27.55" lane="e1_0" slope="0.00"/>
        <vehicle id="test" x="89.76" y="129.08" angle="115.93" type="ev@test" speed="2.42" pos="9.52" lane="e1_0" slope="0.00"/>
    </timestep>
    <timestep time="8.00">
        <vehicle id="0" x="143.66" y="102.87" angle="115.93" type="car@0" speed="8.62" pos="69.45" lane="e1_0" slope="0.00"/>
        <vehicle id="1" x="113.59" y="117.49" angle="115.93" type="car@1" speed="8.47" pos="36.02" lane="e1_0" slope="0.00"/>
        <vehicle id="test" x="94.98" y="126.54" angle="115.93" type="ev@test" speed="5.81" pos="15.33" lane="e1_0" slope="0.00"/>
    </timestep>
    <timestep time="9.00">
        <vehicle id="0" x="150.33" y="99.63" angle="115.93" type="car@0" speed="7.41" pos="76.86" lane="e1_0" slope="0.00"/>
        <vehicle id="1" x="122.54" y="113.14" angle="115.93" type="car@1" speed="9.94" pos="45.96" lane="e1_0" slope="0.00"/>
        <vehicle id="2" x="85.79" y="131.01" angle="115.93" type="car" speed="0.00" pos="5.10" lane="e1_0" slope="0.00"/>
        <vehicle id="test" x="102.35" y="122.96" angle="115.93" type="ev@test" speed="8.19" pos="23.52" lane="e1_0" slope="0.00"/>
    </timestep>
    <timestep time="10.00">
        <vehicle id="0" x="155.01" y="97.36" angle="115.93" type="car@0" speed="5.21" pos="82.07" lane="e1_0" slope="0.00"/>
        <vehicle id="1" x="130.75" y="109.15" angle="115.93" type="car@1" speed="9.14" pos="55.10" lane="e1_0" slope="0.00"/>
        <vehicle id="2" x="88.92" y="129.49" angle="115.93" type="car@2" speed="3.48" pos="8.58" lane="e1_0" slope="0.00"/>
        <vehicle id="test" x="109.78" y="119.35" angle="115.93" type="ev@test" speed="8.26" pos="31.77" lane="e1_0" slope="0.00"/>
    </timestep>
    <timestep time="11.00">
        <vehicle id="0" x="157.72" y="95.81" angle="118.24" type="car@0" speed="3.14" pos="0.82" lane=":j2_0_0" slope="0.00"/>
        <vehicle id="1" x="139.76" y="108.32" angle="115.93" type="car@1" speed="8.45" pos="63.55" lane="e1_1" slope="0.00"/>
        <vehicle id="2" x="94.00" y="127.02" angle="115.93" type="car@2" speed="5.65" pos="14.23" lane="e1_0" slope="0.00"/>
        <vehicle id="test" x="117.73" y="115.48" angle="115.93" type="ev@test" speed="8.85" pos="40.62" lane="e1_0" slope="0.00"/>
    </timestep>
    <timestep time="12.00">
        <vehicle id="0" x="158.01" y="91.99" angle="165.24" type="car@0" speed="3.88" pos="2.91" lane="e2_0" slope="0.00"/>
        <vehicle id="1" x="147.25" y="104.68" angle="115.93" type="car@1" speed="8.32" pos="71.88" lane="e1_1" slope="0.00"/>
        <vehicle id="2" x="100.86" y="123.68" angle="115.93" type="car@2" speed="7.63" pos="21.85" lane="e1_0" slope="0.00"/>
        <vehicle id="3" x="85.79" y="131.01" angle="115.93" type="car" speed="0.00" pos="5.10" lane="e1_0" slope="0.00"/>
        <vehicle id="test" x="126.34" y="111.30" angle="115.93" type="ev@test" speed="9.57" pos="50.19" lane="e1_0" slope="0.00"/>
    </timestep>
    <timestep time="13.00">
        <vehicle id="0" x="158.04" y="84.74" angle="179.78" type="car@0" speed="7.25" pos="10.16" lane="e2_0" slope="0.00"/>
        <vehicle id="1" x="153.17" y="101.80" angle="115.93" type="car@1" speed="6.59" pos="78.47" lane="e1_1" slope="0.00"/>
        <vehicle id="2" x="109.40" y="119.53" angle="115.93" type="car@2" speed="9.50" pos="31.36" lane="e1_0" slope="0.00"/>
        <vehicle id="3" x="87.93" y="129.97" angle="115.93" type="car@3" speed="2.38" pos="7.48" lane="e1_0" slope="0.00"/>
        <vehicle id="test" x="133.99" y="107.57" angle="115.93" type="ev@test" speed="8.51" pos="58.70" lane="e1_0" slope="0.00"/>
    </timestep>
    <timestep time="14.00">
        <vehicle id="0" x="158.07" y="75.39" angle="179.78" type="car@0" speed="9.35" pos="19.51" lane="e2_0" slope="0.00"/>
        <vehicle id="1" x="157.13" y="99.88" angle="115.93" type="car@1" speed="4.39" pos="82.86" lane="e1_1" slope="0.00"/>
        <vehicle id="2" x="118.27" y="115.22" angle="115.93" type="car@2" speed="9.86" pos="41.21" lane="e1_0" slope="0.00"/>
        <vehicle id="3" x="92.38" y="127.80" angle="115.93" type="car@3" speed="4.95" pos="12.43" lane="e1_0" slope="0.00"/>
        <vehicle id="test" x="141.44" y="103.96" angle="115.93" type="ev@test" speed="8.27" pos="66.97" lane="e1_0" slope="0.00"/>
    </timestep>
    <timestep time="15.00">
        <vehicle id="0" x="158.10" y="67.08" angle="179.78" type="car@0" speed="8.30" pos="27.82" lane="e2_0" slope="0.00"/>
        <vehicle id="1" x="161.07" y="96.01" angle="137.50" type="car@1" speed="5.80" pos="4.27" lane=":j2_0_1" slope="0.00"/>
        <vehicle id="2" x="125.94" y="111.49" angle="115.93" type="car@2" speed="8.53" pos="49.75" lane="e1_0" slope="0.00"/>
        <vehicle id="3" x="99.22" y="124.48" angle="115.93" type="car@3" speed="7.61" pos="20.04" lane="e1_0" slope="0.00"/>
        <vehicle id="test" x="148.17" y="100.68" angle="115.93" type="ev@test" speed="7.49" pos="74.46" lane="e1_0" slope="0.00"/>
    </timestep>
    <timestep time="16.00">
        <vehicle id="0" x="158.14" y="58.39" angle="179.78" type="car@0" speed="8.69" pos="36.51" lane="e2_0" slope="0.00"/>
        <vehicle id="1" x="161.22" y="90.92" angle="178.43" type="car@1" speed="5.10" pos="4.00" lane="e2_1" slope="0.00"/>
        <vehicle id="2" x="135.12" y="110.58" angle="115.93" type="car@2" speed="8.65" pos="58.40" lane="e1_1" slope="0.00"/>
        <vehicle id="3" x="107.21" y="120.60" angle="115.93" type="car@3" speed="8.88" pos="28.92" lane="e1_0" slope="0.00"/>
        <vehicle id="test" x="152.92" y="98.37" angle="115.93" type="ev@test" speed="5.29" pos="79.75" lane="e1_0" slope="0.00"/>
    </timestep>
    <timestep time="17.00">
        <vehicle id="0" x="158.17" y="50.05" angle="179.78" type="car@0" speed="8.34" pos="44.85" lane="e2_0" slope="0.00"/>
        <vehicle id="1" x="161.25" y="82.58" angle="179.78" type="car@1" speed="8.35" pos="12.34" lane="e2_1" slope="0.00"/>
        <vehicle id="2" x="143.46" y="106.52" angle="115.93" type="car@2" speed="9.27" pos="67.67" lane="e1_1" slope="0.00"/>
        <vehicle id="3" x="115.15" y="116.73" angle="115.93" type="car@3" speed="8.83" pos="37.75" lane="e1_0" slope="0.00"/>
        <vehicle id="test" x="156.31" y="96.73" angle="115.93" type="ev@test" speed="3.76" pos="83.51" lane="e1_0" slope="0.00"/>
    </timestep>
    <timestep time="18.00">
        <vehicle id="0" x="158.20" y="40.72" angle="179.78" type="car@0" speed="9.33" pos="54.18" lane="e2_0" slope="0.00"/>
        <vehicle id="1" x="161.28" y="74.11" angle="179.78" type="car@1" speed="8.46" pos="20.80" lane="e2_1" slope="0.00"/>
        <vehicle id="2" x="151.74" y="102.49" angle="115.93" type="car@2" speed="9.21" pos="76.88" lane="e1_1" slope="0.00"/>
        <vehicle id="3" x="123.54" y="112.66" angle="115.93" type="car@3" speed="9.33" pos="47.08" lane="e1_0" slope="0.00"/>
        <vehicle id="test" x="158.00" y="94.01" angle="131.39" type="ev@test" speed="3.56" pos="0.89" lane="e2_0" slope="0.00"/>
    </timestep>
    <timestep time="19.00">
        <vehicle id="0" x="158.24" y="31.55" angle="179.78" type="car@0" speed="9.17" pos="63.35" lane="e2_0" slope="0.00"/>
        <vehicle id="1" x="161.32" y="64.34" angle="179.78" type="car@1" speed="9.77" pos="30.58" lane="e2_1" slope="0.00"/>
        <vehicle id="2" x="158.37" y="99.28" angle="115.93" type="car@2" speed="7.36" pos="84.24" lane="e1_1" slope="0.00"/>
        <vehicle id="3" x="131.75" y="108.66" angle="115.93" type="car@3" speed="9.13" pos="56.21" lane="e1_0" slope="0.00"/>
        <vehicle id="test" x="158.02" y="88.64" angle="178.43" type="ev@test" speed="5.37" pos="6.26" lane="e2_0" slope="0.00"/>
    </timestep>
    <timestep time="20.00">
        <vehicle id="0" x="158.26" y="24.58" angle="179.78" type="car@0" speed="6.97" pos="70.32" lane="e2_0" slope="0.00"/>
        <vehicle id="1" x="161.35" y="54.98" angle="179.78" type="car@1" speed="9.36" pos="39.93" lane="e2_1" slope="0.00"/>
        <vehicle id="2" x="161.20" y="93.90" angle="161.33" type="car@2" speed="6.54" pos="1.02" lane="e2_1" slope="0.00"/>
        <vehicle id="3" x="140.36" y="104.48" angle="115.93" type="car@3" speed="9.57" pos="65.78" lane="e1_0" slope="0.00"/>
        <vehicle id="test" x="158.05" y="80.41" angle="179.78" type="ev@test" speed="8.23" pos="14.49" lane="e2_0" slope="0.00"/>
    </timestep>
    <timestep time="21.00">
        <vehicle id="0" x="158.28" y="19.82" angle="179.78" type="car@0" speed="4.77" pos="75.08" lane="e2_0" slope="0.00"/>
        <vehicle id="1" x="161.38" y="46.07" angle="179.78" type="car@1" speed="8.91" pos="48.85" lane="e2_1" slope="0.00"/>
        <vehicle id="2" x="161.24" y="83.96" angle="179.78" type="car@2" speed="9.94" pos="10.96" lane="e2_1" slope="0.00"/>
        <vehicle id="3" x="146.99" y="101.25" angle="115.93" type="car@3" speed="7.37" pos="73.15" lane="e1_0" slope="0.00"/>
        <vehicle id="test" x="158.09" y="71.83" angle="179.78" type="ev@test" speed="8.58" pos="23.07" lane="e2_0" slope="0.00"/>
    </timestep>
    <timestep time="22.00">
        <vehicle id="0" x="158.10" y="17.12" angle="182.07" type="car@0" speed="2.72" pos="0.83" lane=":j3_0_0" slope="0.00"/>
        <vehicle id="1" x="161.42" y="37.00" angle="179.78" type="car@1" speed="9.07" pos="57.92" lane="e2_1" slope="0.00"/>
        <vehicle id="2" x="161.27" y="75.32" angle="179.78" type="car@2" speed="8.64" pos="19.60" lane="e2_1" slope="0.00"/>
        <vehicle id="3" x="151.65" y="98.99" angle="115.93" type="car@3" speed="5.17" pos="78.33" lane="e1_0" slope="0.00"/>
        <vehicle id="test" x="158.12" y="62.96" angle="179.78" type="ev@test" speed="8.87" pos="31.94" lane="e2_0" slope="0.00"/>
    </timestep>
    <timestep time="23.00">
        <vehicle id="0" x="155.24" y="15.15" angle="221.41" type="car@0" speed="3.49" pos="2.68" lane="e3_0" slope="0.00"/>
        <vehicle id="1" x="161.46" y="27.20" angle="179.78" type="car@1" speed="9.79" pos="67.71" lane="e2_1" slope="0.00"/>
        <vehicle id="2" x="161.31" y="65.76" angle="179.78" type="car@2" speed="9.56" pos="29.16" lane="e2_1" slope="0.00"/>
        <vehicle id="3" x="155.68" y="97.03" angle="115.93" type="car@3" speed="4.48" pos="82.81" lane="e1_0" slope="0.00"/>
        <vehicle id="test" x="158.15" y="53.79" angle="179.78" type="ev@test" speed="9.17" pos="41.11" lane="e2_0" slope="0.00"/>
    </timestep>
    <timestep time="24.00">
        <vehicle id="0" x="149.72" y="11.77" angle="238.51" type="car@0" speed="6.47" pos="9.15" lane="e3_0" slope="0.00"/>
        <vehicle id="1" x="161.48" y="19.40" angle="179.78" type="car@1" speed="7.81" pos="75.51" lane="e2_1" slope="0.00"/>
        <vehicle id="2" x="161.34" y="56.58" angle="179.78" type="car@2" speed="9.17" pos="38.33" lane="e2_1" slope="0.00"/>
        <vehicle id="3" x="158.00" y="94.59" angle="130.75" type="car@3" speed="3.68" pos="0.31" lane="e2_0" slope="0.00"/>
        <vehicle id="test" x="158.19" y="43.81" angle="179.78" type="ev@test" speed="9.98" pos="51.09" lane="e2_0" slope="0.00"/>
    </timestep>
    <timestep time="25.00">
        <vehicle id="0" x="141.32" y="6.62" angle="238.51" type="car@0" speed="9.86" pos="19.01" lane="e3_0" slope="0.00"/>
        <vehicle id="1" x="159.82" y="14.31" angle="200.39" type="car@1" speed="5.61" pos="4.14" lane=":j3_0_1" slope="0.00"/>
        <vehicle id="2" x="161.38" y="46.76" angle="179.78" type="car@2" speed="9.82" pos="48.15" lane="e2_1" slope="0.00"/>
        <vehicle id="3" x="158.03" y="87.97" angle="179.78" type="car@3" speed="6.62" pos="6.93" lane="e2_0" slope="0.00"/>
        <vehicle id="test" x="158.23" y="34.94" angle="179.78" type="ev@test" speed="8.87" pos="59.96" lane="e2_0" slope="0.00"/>
    </timestep>
    <timestep time="26.00">
        <vehicle id="0" x="133.09" y="1.58" angle="238.51" type="car@0" speed="9.65" pos="28.66" lane="e3_0" slope="0.00"/>
        <vehicle id="1" x="154.94" y="11.21" angle="238.50" type="car@1" speed="5.79" pos="5.00" lane="e3_1" slope="0.00"/>
        <vehicle id="2" x="161.42" y="36.83" angle="179.78" type="car@2" speed="9.93" pos="58.08" lane="e2_1" slope="0.00"/>
        <vehicle id="3" x="158.06" y="78.70" angle="179.78" type="car@3" speed="9.27" pos="16.20" lane="e2_0" slope="0.00"/>
        <vehicle id="test" x="158.25" y="27.60" angle="179.78" type="ev@test" speed="7.34" pos="67.30" lane="e2_0" slope="0.00"/>
    </timestep>
    <timestep time="27.00">
        <vehicle id="0" x="124.92" y="-3.43" angle="238.51" type="car@0" speed="9.58" pos="38.24" lane="e3_0" slope="0.00"/>
        <vehicle id="1" x="147.95" y="6.93" angle="238.51" type="car@1" speed="8.19" pos="13.19" lane="e3_1" slope="0.00"/>
        <vehicle id="2" x="161.45" y="28.50" angle="179.78" type="car@2" speed="8.33" pos="66.41" lane="e2_1" slope="0.00"/>
        <vehicle id="3" x="158.10" y="68.97" angle="179.78" type="car@3" speed="9.73" pos="25.93" lane="e2_0" slope="0.00"/>
        <vehicle id="test" x="158.27" y="22.45" angle="179.78" type="ev@test" speed="5.14" pos="72.45" lane="e2_0" slope="0.00"/>
    </timestep>
    <timestep time="28.00">
        <vehicle id="0" x="116.70" y="-8.46" angle="238.51" type="car@0" speed="9.64" pos="47.88" lane="e3_0" slope="0.00"/>
        <vehicle id="1" x="140.15" y="2.15" angle="238.51" type="car@1" speed="9.15" pos="22.35" lane="e3_1" slope="0.00"/>
        <vehicle id="2" x="161.48" y="20.19" angle="179.78" type="car@2" speed="8.31" pos="74.72" lane="e2_1" slope="0.00"/>
        <vehicle id="3" x="158.13" y="59.89" angle="179.78" type="car@3" speed="9.08" pos="35.01" lane="e2_0" slope="0.00"/>
        <vehicle id="test" x="158.29" y="19.07" angle="179.78" type="ev@test" speed="3.38" pos="75.83" lane="e2_0" slope="0.00"/>
    </timestep>
    <timestep time="29.00">
        <vehicle id="0" x="109.07" y="-13.13" angle="238.51" type="car@0" speed="8.94" pos="56.82" lane="e3_0" slope="0.00"/>
        <vehicle id="1" x="132.62" y="-2.46" angle="238.51" type="car@1" speed="8.82" pos="31.17" lane="e3_1" slope="0.00"/>
        <vehicle id="2" x="160.05" y="14.48" angle="197.37" type="car@2" speed="6.11" pos="3.85" lane=":j3_0_1" slope="0.00"/>
        <vehicle id="3" x="158.16" y="51.11" angle="179.78" type="car@3" speed="8.79" pos="43.79" lane="e2_0" slope="0.00"/>
        <vehicle id="test" x="156.74" y="16.06" angle="193.73" type="ev@test" speed="3.72" pos="0.93" lane="e3_0" slope="0.00"/>
    </timestep>
    <timestep time="30.00">
        <vehicle id="0" x="101.97" y="-17.48" angle="238.51" type="car@0" speed="8.33" pos="65.15" lane="e3_0" slope="0.00"/>
        <vehicle id="1" x="124.91" y="-7.19" angle="238.51" type="car@1" speed="9.05" pos="40.22" lane="e3_1" slope="0.00"/>
        <vehicle id="2" x="155.13" y="11.33" angle="238.21" type="car@2" speed="5.85" pos="4.77" lane="e3_1" slope="0.00"/>
        <vehicle id="3" x="158.20" y="42.77" angle="179.78" type="car@3" speed="8.33" pos="52.13" lane="e2_0" slope="0.00"/>
        <vehicle id="test" x="151.56" y="12.89" angle="238.51" type="ev@test" speed="6.07" pos="7.00" lane="e3_0" slope="0.00"/>
    </timestep>
    <timestep time="31.00">
        <vehicle id="0" x="94.85" y="-21.85" angle="238.51" type="car@0" speed="8.35" pos="73.50" lane="e3_0" slope="0.00"/>
        <vehicle id="1" x="116.86" y="-12.12" angle="238.51" type="car@1" speed="9.44" pos="49.65" lane="e3_1" slope="0.00"/>
        <vehicle id="2" x="147.33" y="6.55" angle="238.51" type="car@2" speed="9.14" pos="13.92" lane="e3_1" slope="0.00"/>
        <vehicle id="3" x="158.23" y="34.33" angle="179.78" type="car@3" speed="8.44" pos="60.57" lane="e2_0" slope="0.00"/>
        <vehicle id="test" x="143.93" y="8.22" angle="238.51" type="ev@test" speed="8.94" pos="15.94" lane="e3_0" slope="0.00"/>
    </timestep>
    <timestep time="32.00">
        <vehicle id="0" x="87.88" y="-26.12" angle="238.51" type="car@0" speed="8.17" pos="81.67" lane="e3_0" slope="0.00"/>
        <vehicle id="1" x="109.50" y="-16.63" angle="238.51" type="car@1" speed="8.63" pos="58.28" lane="e3_1" slope="0.00"/>
        <vehicle id="2" x="138.83" y="1.34" angle="238.51" type="car@2" speed="9.98" pos="23.89" lane="e3_1" slope="0.00"/>
        <vehicle id="3" x="158.26" y="26.58" angle="179.78" type="car@3" speed="7.75" pos="68.32" lane="e2_0" slope="0.00"/>
        <vehicle id="test" x="135.93" y="3.32" angle="238.51" type="ev@test" speed="9.38" pos="25.33" lane="e3_0" slope="0.00"/>
    </timestep>
    <timestep time="33.00">
        <vehicle id="0" x="82.79" y="-29.23" angle="238.51" type="car@0" speed="5.97" pos="87.64" lane="e3_0" slope="0.00"/>
        <vehicle id="1" x="101.43" y="-21.57" angle="238.51" type="car@1" speed="9.47" pos="67.75" lane="e3_1" slope="0.00"/>
        <vehicle id="2" x="131.73" y="-3.01" angle="238.51" type="car@2" speed="8.32" pos="32.21" lane="e3_1" slope="0.00"/>
        <vehicle id="3" x="158.28" y="20.82" angle="179.78" type="car@3" speed="5.76" pos="74.08" lane="e2_0" slope="0.00"/>
        <vehicle id="test" x="128.39" y="-1.30" angle="238.51" type="ev@test" speed="8.85" pos="34.17" lane="e3_0" slope="0.00"/>
    </timestep>
    <timestep time="34.00">
        <vehicle id="0" x="79.39" y="-29.27" angle="261.34" type="car@0" speed="3.77" pos="1.06" lane="e4_0" slope="0.00"/>
        <vehicle id="1" x="93.76" y="-26.27" angle="238.51" type="car@1" speed="8.99" pos="76.74" lane="e3_1" slope="0.00"/>
        <vehicle id="2" x="123.58" y="-8.00" angle="238.51" type="car@2" speed="9.56" pos="41.78" lane="e3_1" slope="0.00"/>
        <vehicle id="3" x="158.16" y="17.28" angle="181.30" type="car@3" speed="3.56" pos="0.66" lane=":j3_0_0" slope="0.00"/>
        <vehicle id="test" x="120.98" y="-5.84" angle="238.51" type="ev@test" speed="8.69" pos="42.86" lane="e3_0" slope="0.00"/>
    </timestep>
    <timestep time="35.00">
        <vehicle id="0" x="74.04" y="-26.26" angle="299.33" type="car@0" speed="6.14" pos="7.21" lane="e4_0" slope="0.00"/>
        <vehicle id="1" x="86.98" y="-30.42" angle="238.51" type="car@1" speed="7.95" pos="84.69" lane="e3_1" slope="0.00"/>
        <vehicle id="2" x="115.53" y="-12.93" angle="238.51" type="car@2" speed="9.44" pos="51.21" lane="e3_1" slope="0.00"/>
        <vehicle id="3" x="155.71" y="15.43" angle="214.81" type="car@3" speed="3.12" pos="2.14" lane="e3_0" slope="0.00"/>
        <vehicle id="test" x="112.49" y="-11.04" angle="238.51" type="ev@test" speed="9.95" pos="52.81" lane="e3_0" slope="0.00"/>
    </timestep>
    <timestep time="36.00">
        <vehicle id="0" x="65.77" y="-21.61" angle="299.33" type="car@0" speed="9.48" pos="16.69" lane="e4_0" slope="0.00"/>
        <vehicle id="1" x="81.95" y="-33.12" angle="242.28" type="car@1" speed="5.75" pos="1.79" lane=":j4_0_1" slope="0.00"/>
        <vehicle id="2" x="107.73" y="-17.71" angle="238.51" type="car@2" speed="9.15" pos="60.37" lane="e3_1" slope="0.00"/>
        <vehicle id="3" x="151.38" y="12.78" angle="238.51" type="car@3" speed="5.07" pos="7.21" lane="e3_0" slope="0.00"/>
        <vehicle id="test" x="104.46" y="-15.96" angle="238.51" type="ev@test" speed="9.43" pos="62.24" lane="e3_0" slope="0.00"/>
    </timestep>
    <timestep time="37.00">
        <vehicle id="0" x="57.81" y="-17.14" angle="299.33" type="car@0" speed="9.13" pos="25.82" lane="e4_0" slope="0.00"/>
        <vehicle id="1" x="77.22" y="-31.72" angle="286.95" type="car@1" speed="5.08" pos="1.76" lane="e4_1" slope="0.00"/>
        <vehicle id="2" x="100.11" y="-22.38" angle="238.51" type="car@2" speed="8.93" pos="69.30" lane="e3_1" slope="0.00"/>
        <vehicle id="3" x="144.85" y="8.78" angle="238.51" type="car@3" speed="7.66" pos="14.87" lane="e3_0" slope="0.00"/>
        <vehicle id="test" x="95.97" y="-21.16" angle="238.51" type="ev@test" speed="9.96" pos="72.19" lane="e3_0" slope="0.00"/>
    </timestep>
    <timestep time="38.00">
        <vehicle id="0" x="49.29" y="-12.35" angle="299.33" type="car@0" speed="9.77" pos="35.60" lane="e4_0" slope="0.00"/>
        <vehicle id="1" x="70.45" y="-27.92" angle="299.34" type="car@1" speed="7.76" pos="9.52" lane="e4_1" slope="0.00"/>
        <vehicle id="2" x="94.00" y="-26.12" angle="238.51" type="car@2" speed="7.16" pos="76.46" lane="e3_1" slope="0.00"/>
        <vehicle id="3" x="136.82" y="3.86" angle="238.51" type="car@3" speed="9.41" pos="24.28" lane="e3_0" slope="0.00"/>
        <vehicle id="test" x="89.35" y="-25.21" angle="238.51" type="ev@test" speed="7.76" pos="79.95" lane="e3_0" slope="0.00"/>
    </timestep>
    <timestep time="39.00">
        <vehicle id="0" x="41.95" y="-8.23" angle="299.33" type="car@0" speed="8.41" pos="44.01" lane="e4_0" slope="0.00"/>
        <vehicle id="1" x="63.10" y="-23.79" angle="299.34" type="car@1" speed="8.43" pos="17.95" lane="e4_1" slope="0.00"/>
        <vehicle id="2" x="87.29" y="-30.24" angle="238.51" type="car@2" speed="7.88" pos="84.34" lane="e3_1" slope="0.00"/>
        <vehicle id="3" x="128.94" y="-0.96" angle="238.51" type="car@3" speed="9.24" pos="33.53" lane="e3_0" slope="0.00"/>
        <vehicle id="test" x="84.61" y="-28.12" angle="238.51" type="ev@test" speed="5.56" pos="85.50" lane="e3_0" slope="0.00"/>
    </timestep>
    <timestep time="40.00">
        <vehicle id="0" x="34.62" y="-4.11" angle="299.33" type="car@0" speed="8.40" pos="52.41" lane="e4_0" slope="0.00"/>
        <vehicle id="1" x="54.58" y="-19.00" angle="299.34" type="car@1" speed="9.77" pos="27.72" lane="e4_1" slope="0.00"/>
        <vehicle id="2" x="82.37" y="-33.06" angle="240.42" type="car@2" speed="5.68" pos="1.36" lane=":j4_0_1" slope="0.00"/>
        <vehicle id="3" x="121.74" y="-5.38" angle="238.51" type="car@3" speed="8.45" pos="41.97" lane="e3_0" slope="0.00"/>
        <vehicle id="test" x="81.74" y="-29.85" angle="238.69" type="ev@test" speed="3.36" pos="0.21" lane=":j4_0_0" slope="0.00"/>
    </timestep>
    <timestep time="41.00">
        <vehicle id="0" x="27.20" y="0.06" angle="299.33" type="car@0" speed="8.52" pos="60.93" lane="e4_0" slope="0.00"/>
        <vehicle id="1" x="46.56" y="-14.49" angle="299.34" type="car@1" speed="9.20" pos="36.92" lane="e4_1" slope="0.00"/>
        <vehicle id="2" x="77.38" y="-31.81" angle="285.53" type="car@2" speed="5.32" pos="1.57" lane="e4_1" slope="0.00"/>
        <vehicle id="3" x="113.78" y="-10.25" angle="238.51" type="car@3" speed="9.33" pos="51.30" lane="e3_0" slope="0.00"/>
        <vehicle id="test" x="78.20" y="-28.60" angle="266.91" type="ev@test" speed="3.93" pos="2.44" lane="e4_0" slope="0.00"/>
    </timestep>
    <timestep time="42.00">
        <vehicle id="0" x="18.63" y="4.87" angle="299.33" type="car@0" speed="9.82" pos="70.75" lane="e4_0" slope="0.00"/>
        <vehicle id="1" x="38.19" y="-9.78" angle="299.34" type="car@1" speed="9.61" pos="46.53" lane="e4_1" slope="0.00"/>
        <vehicle id="2" x="70.76" y="-28.09" angle="299.34" type="car@2" speed="7.59" pos="9.17" lane="e4_1" slope="0.00"/>
        <vehicle id="3" x="106.28" y="-14.84" angle="238.51" type="car@3" speed="8.80" pos="60.10" lane="e3_0" slope="0.00"/>
        <vehicle id="test" x="72.62" y="-25.46" angle="299.33" type="ev@test" speed="6.40" pos="8.83" lane="e4_0" slope="0.00"/>
    </timestep>
    <timestep time="43.00">
        <vehicle id="0" x="9.92" y="9.77" angle="299.33" type="car@0" speed="10.00" pos="80.75" lane="e4_0" slope="0.00"/>
        <vehicle id="1" x="31.39" y="-2.30" angle="299.33" type="car@1" speed="9.59" pos="56.12" lane="e4_0" slope="0.00"/>
        <vehicle id="2" x="62.84" y="-23.64" angle="299.34" type="car@2" speed="9.08" pos="18.25" lane="e4_1" slope="0.00"/>
        <vehicle id="3" x="97.82" y="-20.03" angle="238.51" type="car@3" speed="9.92" pos="70.02" lane="e3_0" slope="0.00"/>
        <vehicle id="test" x="64.47" y="-20.88" angle="299.33" type="ev@test" speed="9.35" pos="18.18" lane="e4_0" slope="0.00"/>
    </timestep>
    <timestep time="44.00">
        <vehicle id="0" x="3.12" y="13.59" angle="299.33" type="car@0" speed="7.80" pos="88.54" lane="e4_0" slope="0.00"/>
        <vehicle id="1" x="23.83" y="1.95" angle="299.33" type="car@1" speed="8.68" pos="64.80" lane="e4_0" slope="0.00"/>
        <vehicle id="2" x="55.31" y="-19.41" angle="299.34" type="car@2" speed="8.64" pos="26.88" lane="e4_1" slope="0.00"/>
        <vehicle id="3" x="90.62" y="-24.44" angle="238.51" type="car@3" speed="8.45" pos="78.47" lane="e3_0" slope="0.00"/>
        <vehicle id="test" x="56.80" y="-16.57" angle="299.33" type="ev@test" speed="8.80" pos="26.98" lane="e4_0" slope="0.00"/>
    </timestep>
    <timestep time="45.00">
        <vehicle id="0" x="-1.82" y="16.36" angle="299.33" type="car@0" speed="5.66" pos="94.21" lane="e4_0" slope="0.00"/>
        <vehicle id="1" x="15.27" y="3.10" angle="299.34" type="car@1" speed="8.03" pos="72.82" lane="e4_1" slope="0.00"/>
        <vehicle id="2" x="47.10" y="-14.79" angle="299.34" type="car@2" speed="9.42" pos="36.31" lane="e4_1" slope="0.00"/>
        <vehicle id="3" x="85.29" y="-27.70" angle="238.51" type="car@3" speed="6.25" pos="84.71" lane="e3_0" slope="0.00"/>
        <vehicle id="test" x="48.91" y="-12.14" angle="299.33" type="ev@test" speed="9.04" pos="36.02" lane="e4_0" slope="0.00"/>
    </timestep>
    <timestep time="46.00">
        <vehicle id="0" x="-3.11" y="19.40" angle="325.86" type="car@0" speed="3.58" pos="1.49" lane="e5_0" slope="0.00"/>
        <vehicle id="1" x="6.90" y="7.80" angle="299.34" type="car@1" speed="9.60" pos="82.42" lane="e4_1" slope="0.00"/>
        <vehicle id="2" x="38.58" y="-10.01" angle="299.34" type="car@2" speed="9.77" pos="46.07" lane="e4_1" slope="0.00"/>
        <vehicle id="3" x="81.83" y="-29.81" angle="238.64" type="car@3" speed="4.05" pos="0.11" lane=":j4_0_0" slope="0.00"/>
        <vehicle id="test" x="40.46" y="-7.39" angle="299.33" type="ev@test" speed="9.69" pos="45.72" lane="e4_0" slope="0.00"/>
    </timestep>
    <timestep time="47.00">
        <vehicle id="0" x="-3.40" y="25.16" angle="357.10" type="car@0" speed="5.77" pos="7.26" lane="e5_0" slope="0.00"/>
        <vehicle id="1" x="0.44" y="11.43" angle="299.34" type="car@1" speed="7.40" pos="89.82" lane="e4_1" slope="0.00"/>
        <vehicle id="2" x="30.20" y="-5.30" angle="299.34" type="car@2" speed="9.62" pos="55.69" lane="e4_1" slope="0.00"/>
        <vehicle id="3" x="78.63" y="-28.84" angle="272.64" type="car@3" speed="3.53" pos="1.94" lane="e4_0" slope="0.00"/>
        <vehicle id="test" x="32.35" y="-2.84" angle="299.33" type="ev@test" speed="9.30" pos="55.02" lane="e4_0" slope="0.00"/>
    </timestep>
    <timestep time="48.00">
        <vehicle id="0" x="-3.80" y="33.12" angle="357.10" type="car@0" speed="7.98" pos="15.24" lane="e5_0" slope="0.00"/>
        <vehicle id="1" x="-4.07" y="14.01" angle="299.81" type="car@1" speed="5.20" pos="0.36" lane=":j5_0_1" slope="0.00"/>
        <vehicle id="2" x="22.81" y="-1.14" angle="299.34" type="car@2" speed="8.48" pos="64.17" lane="e4_1" slope="0.00"/>
        <vehicle id="3" x="73.04" y="-25.70" angle="299.33" type="car@3" speed="6.41" pos="8.35" lane="e4_0" slope="0.00"/>
        <vehicle id="test" x="23.83" y="1.95" angle="299.33" type="ev@test" speed="9.78" pos="64.79" lane="e4_0" slope="0.00"/>
    </timestep>