<?xml version="1.0" encoding="UTF-8"?>

<!-- generated on 2024-08-09 15:40:04 by Eclipse SUMO GUI Version 1.20.0
<configuration xmlns:xsi="http://www.w3.org/2001/XMLSchema-instance" xsi:noNamespaceSchemaLocation="http://sumo.dlr.de/xsd/sumoConfiguration.xsd">

    <input>
        <net-file value="test.net.xml"/>
        <route-files value="test.rou.xml"/>
    </input>

    <output>
        <fcd-output value="FCD.xml"/>
        <edgedata-output value="edgeOutput.xml"/>
        <lanedata-output value="laneOutput.xml"/>
    </output>

    <traci_server>
        <remote-port value="61743"/>
    </traci_server>

</configuration>
-->

<fcd-export xmlns:xsi="http://www.w3.org/2001/XMLSchema-instance" xsi:noNamespaceSchemaLocation="http://sumo.dlr.de/xsd/fcd_file.xsd">
    <timestep time="0.00">
        <vehicle id="0" x="85.79" y="131.01" angle="115.93" type="car" speed="0.00" pos="5.10" lane="e1_0" slope="0.00"/>
    </timestep>
    <timestep time="1.00">
        <vehicle id="0" x="88.26" y="129.81" angle="115.93" type="car@0" speed="2.75" pos="7.85" lane="e1_0" slope="0.00"/>
    </timestep>
    <timestep time="2.00">
        <vehicle id="0" x="93.55" y="127.24" angle="115.93" type="car@0" speed="5.88" pos="13.73" lane="e1_0" slope="0.00"/>
    </timestep>
    <timestep time="3.00">
        <vehicle id="0" x="99.87" y="124.16" angle="115.93" type="car@0" speed="7.03" pos="20.76" lane="e1_0" slope="0.00"/>
        <vehicle id="1" x="85.79" y="131.01" angle="115.93" type="car" speed="0.00" pos="5.10" lane="e1_0" slope="0.00"/>
    </timestep>
    <timestep time="4.00">
        <vehicle id="0" x="106.91" y="120.74" angle="115.93" type="car@0" speed="7.83" pos="28.59" lane="e1_0" slope="0.00"/>
        <vehicle id="1" x="86.72" y="130.55" angle="115.93" type="car@1" speed="1.04" pos="6.14" lane="e1_0" slope="0.00"/>
    </timestep>
    <timestep time="5.00">
        <vehicle id="0" x="115.10" y="116.76" angle="115.93" type="car@0" speed="9.11" pos="37.69" lane="e1_0" slope="0.00"/>
        <vehicle id="1" x="88.10" y="129.88" angle="115.93" type="car@1" speed="1.53" pos="7.68" lane="e1_0" slope="0.00"/>
    </timestep>
    <timestep time="6.00">
        <vehicle id="0" x="123.16" y="112.84" angle="115.93" type="car@0" speed="8.96" pos="46.66" lane="e1_0" slope="0.00"/>
        <vehicle id="1" x="89.93" y="128.99" angle="115.93" type="car@1" speed="2.03" pos="9.71" lane="e1_0" slope="0.00"/>
    </timestep>
    <timestep time="7.00">
        <vehicle id="0" x="131.18" y="108.94" angle="115.93" type="car@0" speed="8.91" pos="55.57" lane="e1_0" slope="0.00"/>
        <vehicle id="1" x="94.69" y="126.68" angle="115.93" type="car@1" speed="5.29" pos="15.00" lane="e1_0" slope="0.00"/>
        <vehicle id="test" x="87.59" y="130.14" angle="115.93" type="ev" speed="0.00" pos="7.10" lane="e1_0" slope="0.00"/>
    </timestep>
    <timestep time="8.00">
        <vehicle id="0" x="138.22" y="105.52" angle="115.93" type="car@0" speed="7.84" pos="63.40" lane="e1_0" slope="0.00"/>
        <vehicle id="1" x="100.11" y="124.05" angle="115.93" type="car@1" speed="6.02" pos="21.02" lane="e1_0" slope="0.00"/>
        <vehicle id="test" x="87.83" y="130.02" angle="115.93" type="ev@test" speed="0.27" pos="7.37" lane="e1_0" slope="0.00"/>
    </timestep>
    <timestep time="9.00">
        <vehicle id="0" x="146.30" y="101.59" angle="115.93" type="car@0" speed="8.97" pos="72.38" lane="e1_0" slope="0.00"/>
        <vehicle id="1" x="106.58" y="120.90" angle="115.93" type="car@1" speed="7.20" pos="28.22" lane="e1_0" slope="0.00"/>
        <vehicle id="test" x="91.12" y="128.42" angle="115.93" type="ev@test" speed="3.66" pos="11.03" lane="e1_0" slope="0.00"/>
    </timestep>
    <timestep time="10.00">
        <vehicle id="0" x="152.39" y="98.63" angle="115.93" type="car@0" speed="6.77" pos="79.15" lane="e1_0" slope="0.00"/>
        <vehicle id="1" x="113.00" y="117.78" angle="115.93" type="car@1" speed="7.14" pos="35.36" lane="e1_0" slope="0.00"/>
        <vehicle id="2" x="85.79" y="131.01" angle="115.93" type="car" speed="0.00" pos="5.10" lane="e1_0" slope="0.00"/>
        <vehicle id="test" x="96.52" y="129.35" angle="115.93" type="ev@test" speed="4.45" pos="15.47" lane="e1_1" slope="0.00"/>
    </timestep>
    <timestep time="11.00">
        <vehicle id="0" x="156.50" y="96.63" angle="115.93" type="car@0" speed="4.57" pos="83.73" lane="e1_0" slope="0.00"/>
        <vehicle id="1" x="121.97" y="113.42" angle="115.93" type="car@1" speed="9.97" pos="45.33" lane="e1_0" slope="0.00"/>
        <vehicle id="2" x="86.98" y="130.43" angle="115.93" type="car@2" speed="1.33" pos="6.43" lane="e1_0" slope="0.00"/>
        <vehicle id="test" x="100.65" y="127.34" angle="115.93" type="ev@test" speed="4.60" pos="20.07" lane="e1_1" slope="0.00"/>
    </timestep>
    <timestep time="12.00">
        <vehicle id="0" x="158.00" y="94.33" angle="134.02" type="car@0" speed="3.03" pos="0.57" lane="e2_0" slope="0.00"/>
        <vehicle id="1" x="130.35" y="112.90" angle="115.93" type="car@1" speed="7.77" pos="53.09" lane="e1_1" slope="0.00"/>
        <vehicle id="2" x="88.92" y="129.49" angle="115.93" type="car@2" speed="2.15" pos="8.58" lane="e1_0" slope="0.00"/>
        <vehicle id="test" x="105.28" y="125.09" angle="115.93" type="ev@test" speed="5.15" pos="25.22" lane="e1_1" slope="0.00"/>
    </timestep>
    <timestep time="13.00">
        <vehicle id="0" x="158.03" y="88.05" angle="179.78" type="car@0" speed="6.27" pos="6.85" lane="e2_0" slope="0.00"/>
        <vehicle id="1" x="136.58" y="109.87" angle="115.93" type="car@1" speed="6.93" pos="60.02" lane="e1_1" slope="0.00"/>
        <vehicle id="2" x="93.23" y="127.39" angle="115.93" type="car@2" speed="4.79" pos="13.37" lane="e1_0" slope="0.00"/>
        <vehicle id="3" x="85.79" y="131.01" angle="115.93" type="car" speed="0.00" pos="5.10" lane="e1_0" slope="0.00"/>
        <vehicle id="test" x="112.94" y="121.36" angle="115.93" type="ev@test" speed="8.52" pos="33.74" lane="e1_1" slope="0.00"/>
    </timestep>
    <timestep time="14.00">
        <vehicle id="0" x="158.06" y="79.58" angle="179.78" type="car@0" speed="8.48" pos="15.32" lane="e2_0" slope="0.00"/>
        <vehicle id="1" x="144.26" y="106.13" angle="115.93" type="car@1" speed="8.54" pos="68.56" lane="e1_1" slope="0.00"/>
        <vehicle id="2" x="97.94" y="125.10" angle="115.93" type="car@2" speed="5.25" pos="18.62" lane="e1_0" slope="0.00"/>
        <vehicle id="3" x="86.04" y="130.89" angle="115.93" type="car@3" speed="0.28" pos="5.38" lane="e1_0" slope="0.00"/>
        <vehicle id="test" x="119.61" y="118.12" angle="115.93" type="ev@test" speed="7.41" pos="41.15" lane="e1_1" slope="0.00"/>
    </timestep>
    <timestep time="15.00">
        <vehicle id="0" x="158.08" y="72.97" angle="179.78" type="car@0" speed="6.60" pos="21.93" lane="e2_0" slope="0.00"/>
        <vehicle id="1" x="152.10" y="102.32" angle="115.93" type="car@1" speed="8.72" pos="77.28" lane="e1_1" slope="0.00"/>
        <vehicle id="2" x="104.92" y="121.71" angle="115.93" type="car@2" speed="7.75" pos="26.37" lane="e1_0" slope="0.00"/>
        <vehicle id="3" x="87.42" y="130.21" angle="115.93" type="car@3" speed="1.54" pos="6.92" lane="e1_0" slope="0.00"/>
        <vehicle id="test" x="127.34" y="114.36" angle="115.93" type="ev@test" speed="8.59" pos="49.74" lane="e1_1" slope="0.00"/>
    </timestep>
    <timestep time="16.00">
        <vehicle id="0" x="158.11" y="65.59" angle="179.78" type="car@0" speed="7.38" pos="29.31" lane="e2_0" slope="0.00"/>
        <vehicle id="1" x="157.96" y="99.47" angle="115.93" type="car@1" speed="6.52" pos="83.79" lane="e1_1" slope="0.00"/>
        <vehicle id="2" x="110.81" y="118.85" angle="115.93" type="car@2" speed="6.55" pos="32.92" lane="e1_0" slope="0.00"/>
        <vehicle id="3" x="93.09" y="131.02" angle="115.93" type="car@3" speed="4.75" pos="11.67" lane="e1_1" slope="0.00"/>
        <vehicle id="test" x="134.27" y="110.99" angle="115.93" type="ev@test" speed="7.70" pos="57.45" lane="e1_1" slope="0.00"/>
    </timestep>
    <timestep time="17.00">
        <vehicle id="0" x="158.14" y="58.91" angle="179.78" type="car@0" speed="6.68" pos="35.99" lane="e2_0" slope="0.00"/>
        <vehicle id="1" x="161.05" y="96.17" angle="135.71" type="car@1" speed="4.71" pos="4.11" lane=":j2_0_1" slope="0.00"/>
        <vehicle id="2" x="118.14" y="115.28" angle="115.93" type="car@2" speed="8.15" pos="41.07" lane="e1_0" slope="0.00"/>
        <vehicle id="3" x="98.50" y="128.39" angle="115.93" type="car@3" speed="6.01" pos="17.68" lane="e1_1" slope="0.00"/>
        <vehicle id="test" x="141.10" y="107.67" angle="115.93" type="ev@test" speed="7.59" pos="65.04" lane="e1_1" slope="0.00"/>
    </timestep>
    <timestep time="18.00">
        <vehicle id="0" x="158.17" y="50.24" angle="179.78" type="car@0" speed="8.67" pos="44.66" lane="e2_0" slope="0.00"/>
        <vehicle id="1" x="161.21" y="91.85" angle="175.48" type="car@1" speed="4.33" pos="3.07" lane="e2_1" slope="0.00"/>
        <vehicle id="2" x="125.43" y="111.74" angle="115.93" type="car@2" speed="8.11" pos="49.18" lane="e1_0" slope="0.00"/>
        <vehicle id="3" x="105.79" y="124.84" angle="115.93" type="car@3" speed="8.11" pos="25.79" lane="e1_1" slope="0.00"/>
        <vehicle id="test" x="146.01" y="105.28" angle="115.93" type="ev@test" speed="5.46" pos="70.50" lane="e1_1" slope="0.00"/>
    </timestep>
    <timestep time="19.00">
        <vehicle id="0" x="158.20" y="41.51" angle="179.78" type="car@0" speed="8.74" pos="53.39" lane="e2_0" slope="0.00"/>
        <vehicle id="1" x="161.24" y="84.52" angle="179.78" type="car@1" speed="7.33" pos="10.40" lane="e2_1" slope="0.00"/>
        <vehicle id="2" x="131.83" y="108.63" angle="115.93" type="car@2" speed="7.11" pos="56.29" lane="e1_0" slope="0.00"/>
        <vehicle id="3" x="112.57" y="121.55" angle="115.93" type="car@3" speed="7.54" pos="33.32" lane="e1_1" slope="0.00"/>
        <vehicle id="test" x="148.94" y="103.86" angle="115.93" type="ev@test" speed="3.26" pos="73.77" lane="e1_1" slope="0.00"/>
    </timestep>
    <timestep time="20.00">
        <vehicle id="0" x="158.23" y="34.90" angle="179.78" type="car@0" speed="6.61" pos="60.00" lane="e2_0" slope="0.00"/>
        <vehicle id="1" x="161.27" y="77.60" angle="179.78" type="car@1" speed="6.92" pos="17.32" lane="e2_1" slope="0.00"/>
        <vehicle id="2" x="139.30" y="104.99" angle="115.93" type="car@2" speed="8.31" pos="64.60" lane="e1_0" slope="0.00"/>
        <vehicle id="3" x="117.74" y="119.03" angle="115.93" type="car@3" speed="5.75" pos="39.07" lane="e1_1" slope="0.00"/>
        <vehicle id="test" x="154.38" y="101.21" angle="115.93" type="ev@test" speed="6.05" pos="79.81" lane="e1_1" slope="0.00"/>
    </timestep>
    <timestep time="21.00">
        <vehicle id="0" x="158.25" y="28.51" angle="179.78" type="car@0" speed="6.40" pos="66.39" lane="e2_0" slope="0.00"/>
        <vehicle id="1" x="161.30" y="68.05" angle="179.78" type="car@1" speed="9.54" pos="26.86" lane="e2_1" slope="0.00"/>
        <vehicle id="2" x="145.34" y="102.06" angle="115.93" type="car@2" speed="6.71" pos="71.31" lane="e1_0" slope="0.00"/>
        <vehicle id="3" x="125.76" y="118.69" angle="115.93" type="car@3" speed="7.36" pos="46.43" lane="e1_2" slope="0.00"/>
        <vehicle id="test" x="157.85" y="99.53" angle="115.93" type="ev@test" speed="3.85" pos="83.66" lane="e1_1" slope="0.00"/>
    </timestep>
    <timestep time="22.00">
        <vehicle id="0" x="158.27" y="23.30" angle="179.78" type="car@0" speed="5.20" pos="71.60" lane="e2_0" slope="0.00"/>
        <vehicle id="1" x="161.33" y="59.33" angle="179.78" type="car@1" speed="8.72" pos="35.58" lane="e2_1" slope="0.00"/>
        <vehicle id="2" x="151.05" y="99.28" angle="115.93" type="car@2" speed="6.35" pos="77.66" lane="e1_0" slope="0.00"/>
        <vehicle id="3" x="132.49" y="115.42" angle="115.93" type="car@3" speed="7.48" pos="53.91" lane="e1_2" slope="0.00"/>
        <vehicle id="test" x="160.14" y="97.93" angle="119.53" type="ev@test" speed="2.82" pos="2.10" lane=":j2_0_1" slope="0.00"/>
    </timestep>
    <timestep time="23.00">
        <vehicle id="0" x="158.28" y="20.30" angle="179.78" type="car@0" speed="3.00" pos="74.60" lane="e2_0" slope="0.00"/>
        <vehicle id="1" x="161.36" y="51.51" angle="179.78" type="car@1" speed="7.82" pos="43.41" lane="e2_1" slope="0.00"/>
        <vehicle id="2" x="154.90" y="97.41" angle="115.93" type="car@2" speed="4.28" pos="81.94" lane="e1_0" slope="0.00"/>
        <vehicle id="3" x="140.91" y="111.32" angle="115.93" type="car@3" speed="9.37" pos="63.28" lane="e1_2" slope="0.00"/>
        <vehicle id="test" x="161.20" y="93.62" angle="152.40" type="ev@test" speed="4.58" pos="1.30" lane="e2_1" slope="0.00"/>
    </timestep>
    <timestep time="24.00">
        <vehicle id="0" x="158.29" y="18.86" angle="179.78" type="car@0" speed="1.44" pos="76.04" lane="e2_0" slope="0.00"/>
        <vehicle id="1" x="161.40" y="41.62" angle="179.78" type="car@1" speed="9.88" pos="53.29" lane="e2_1" slope="0.00"/>
        <vehicle id="2" x="157.19" y="96.28" angle="116.10" type="car@2" speed="2.56" pos="0.11" lane=":j2_0_0" slope="0.00"/>
        <vehicle id="3" x="149.86" y="106.97" angle="115.93" type="car@3" speed="9.94" pos="73.22" lane="e1_2" slope="0.00"/>
        <vehicle id="test" x="161.23" y="87.40" angle="179.78" type="ev@test" speed="6.22" pos="7.52" lane="e2_1" slope="0.00"/>
    </timestep>
    <timestep time="25.00">
        <vehicle id="0" x="158.27" y="17.68" angle="180.05" type="car@0" speed="1.18" pos="0.24" lane=":j3_0_0" slope="0.00"/>
        <vehicle id="1" x="161.43" y="33.94" angle="179.78" type="car@1" speed="7.68" pos="60.97" lane="e2_1" slope="0.00"/>
        <vehicle id="2" x="158.01" y="92.96" angle="152.46" type="car@2" speed="3.62" pos="1.94" lane="e2_0" slope="0.00"/>
        <vehicle id="3" x="158.44" y="102.80" angle="115.93" type="car@3" speed="9.54" pos="82.77" lane="e1_2" slope="0.00"/>
        <vehicle id="test" x="158.06" y="78.08" angle="179.78" type="ev@test" speed="9.30" pos="16.82" lane="e2_0" slope="0.00"/>
    </timestep>
    <timestep time="26.00">
        <vehicle id="0" x="156.42" y="15.87" angle="204.45" type="car@0" speed="2.71" pos="1.31" lane="e3_0" slope="0.00"/>
        <vehicle id="1" x="161.46" y="25.72" angle="179.78" type="car@1" speed="8.22" pos="69.19" lane="e2_1" slope="0.00"/>
        <vehicle id="2" x="161.23" y="87.89" angle="179.78" type="car@2" speed="5.09" pos="7.03" lane="e2_1" slope="0.00"/>
        <vehicle id="3" x="163.91" y="97.70" angle="140.96" type="car@3" speed="7.74" pos="6.12" lane=":j2_0_2" slope="0.00"/>
        <vehicle id="test" x="158.09" y="70.35" angle="179.78" type="ev@test" speed="7.73" pos="24.55" lane="e2_0" slope="0.00"/>
    </timestep>
    <timestep time="27.00">
        <vehicle id="0" x="152.00" y="13.16" angle="238.51" type="car@0" speed="5.18" pos="6.48" lane="e3_0" slope="0.00"/>
        <vehicle id="1" x="161.49" y="18.58" angle="179.78" type="car@1" speed="7.14" pos="76.33" lane="e2_1" slope="0.00"/>
        <vehicle id="2" x="161.25" y="80.95" angle="179.78" type="car@2" speed="6.94" pos="13.97" lane="e2_1" slope="0.00"/>
        <vehicle id="3" x="164.41" y="92.22" angle="176.61" type="car@3" speed="5.54" pos="2.71" lane="e2_2" slope="0.00"/>
        <vehicle id="test" x="158.13" y="60.38" angle="179.78" type="ev@test" speed="9.96" pos="34.52" lane="e2_0" slope="0.00"/>
    </timestep>
    <timestep time="28.00">
        <vehicle id="0" x="144.80" y="8.75" angle="238.51" type="car@0" speed="8.45" pos="14.93" lane="e3_0" slope="0.00"/>
        <vehicle id="1" x="159.70" y="14.21" angle="201.99" type="car@1" speed="4.94" pos="4.29" lane=":j3_0_1" slope="0.00"/>
        <vehicle id="2" x="161.29" y="71.30" angle="179.78" type="car@2" speed="9.65" pos="23.62" lane="e2_1" slope="0.00"/>
        <vehicle id="3" x="164.44" y="83.38" angle="179.78" type="car@3" speed="8.83" pos="11.55" lane="e2_2" slope="0.00"/>
        <vehicle id="test" x="158.16" y="52.62" angle="179.78" type="ev@test" speed="7.76" pos="42.28" lane="e2_0" slope="0.00"/>
    </timestep>
    <timestep time="29.00">
        <vehicle id="0" x="136.87" y="3.89" angle="238.51" type="car@0" speed="9.30" pos="24.23" lane="e3_0" slope="0.00"/>
        <vehicle id="1" x="154.93" y="11.21" angle="238.51" type="car@1" speed="5.64" pos="5.01" lane="e3_1" slope="0.00"/>
        <vehicle id="2" x="161.33" y="61.44" angle="179.78" type="car@2" speed="9.86" pos="33.48" lane="e2_1" slope="0.00"/>
        <vehicle id="3" x="164.47" y="76.00" angle="179.78" type="car@3" speed="7.38" pos="18.93" lane="e2_2" slope="0.00"/>
        <vehicle id="test" x="158.19" y="43.75" angle="179.78" type="ev@test" speed="8.87" pos="51.15" lane="e2_0" slope="0.00"/>
    </timestep>
    <timestep time="30.00">
        <vehicle id="0" x="129.06" y="-0.89" angle="238.51" type="car@0" speed="9.16" pos="33.38" lane="e3_0" slope="0.00"/>
        <vehicle id="1" x="149.00" y="7.57" angle="238.51" type="car@1" speed="6.96" pos="11.96" lane="e3_1" slope="0.00"/>
        <vehicle id="2" x="161.35" y="53.78" angle="179.78" type="car@2" speed="7.66" pos="41.14" lane="e2_1" slope="0.00"/>
        <vehicle id="3" x="164.50" y="68.83" angle="179.78" type="car@3" speed="7.17" pos="26.10" lane="e2_2" slope="0.00"/>
        <vehicle id="test" x="158.22" y="36.00" angle="179.78" type="ev@test" speed="7.75" pos="58.90" lane="e2_0" slope="0.00"/>
    </timestep>
    <timestep time="31.00">
        <vehicle id="0" x="121.15" y="-5.74" angle="238.51" type="car@0" speed="9.28" pos="42.66" lane="e3_0" slope="0.00"/>
        <vehicle id="1" x="141.91" y="3.23" angle="238.51" type="car@1" speed="8.31" pos="20.27" lane="e3_1" slope="0.00"/>
        <vehicle id="2" x="161.39" y="45.24" angle="179.78" type="car@2" speed="8.54" pos="49.67" lane="e2_1" slope="0.00"/>
        <vehicle id="3" x="164.54" y="59.02" angle="179.78" type="car@3" speed="9.80" pos="35.91" lane="e2_2" slope="0.00"/>
        <vehicle id="test" x="158.25" y="29.00" angle="179.78" type="ev@test" speed="7.00" pos="65.90" lane="e2_0" slope="0.00"/>
    </timestep>
    <timestep time="32.00">
        <vehicle id="0" x="114.42" y="-9.86" angle="238.51" type="car@0" speed="7.89" pos="50.55" lane="e3_0" slope="0.00"/>
        <vehicle id="1" x="135.40" y="-0.76" angle="238.51" type="car@1" speed="7.64" pos="27.92" lane="e3_1" slope="0.00"/>
        <vehicle id="2" x="161.41" y="38.21" angle="179.78" type="car@2" speed="7.03" pos="56.70" lane="e2_1" slope="0.00"/>
        <vehicle id="3" x="164.56" y="51.42" angle="179.78" type="car@3" speed="7.60" pos="43.51" lane="e2_2" slope="0.00"/>
        <vehicle id="test" x="158.27" y="24.19" angle="179.78" type="ev@test" speed="4.80" pos="70.71" lane="e2_0" slope="0.00"/>
    </timestep>
    <timestep time="33.00">
        <vehicle id="0" x="108.74" y="-13.33" angle="238.51" type="car@0" speed="6.66" pos="57.21" lane="e3_0" slope="0.00"/>
        <vehicle id="1" x="128.49" y="-4.99" angle="238.51" type="car@1" speed="8.10" pos="36.01" lane="e3_1" slope="0.00"/>
        <vehicle id="2" x="161.45" y="29.49" angle="179.78" type="car@2" speed="8.72" pos="65.42" lane="e2_1" slope="0.00"/>
        <vehicle id="3" x="164.59" y="43.36" angle="179.78" type="car@3" speed="8.06" pos="51.57" lane="e2_2" slope="0.00"/>
        <vehicle id="test" x="158.29" y="18.46" angle="179.78" type="ev@test" speed="5.73" pos="76.44" lane="e2_0" slope="0.00"/>
    </timestep>
    <timestep time="34.00">
        <vehicle id="0" x="102.18" y="-17.35" angle="238.51" type="car@0" speed="7.69" pos="64.90" lane="e3_0" slope="0.00"/>
        <vehicle id="1" x="120.93" y="-9.63" angle="238.51" type="car@1" speed="8.87" pos="44.88" lane="e3_1" slope="0.00"/>
        <vehicle id="2" x="161.48" y="21.82" angle="179.78" type="car@2" speed="7.67" pos="73.09" lane="e2_1" slope="0.00"/>
        <vehicle id="3" x="164.62" y="35.33" angle="179.78" type="car@3" speed="8.03" pos="59.60" lane="e2_2" slope="0.00"/>
        <vehicle id="test" x="156.38" y="15.85" angle="197.27" type="ev@test" speed="3.53" pos="1.35" lane="e3_0" slope="0.00"/>
    </timestep>
    <timestep time="35.00">
        <vehicle id="0" x="96.47" y="-20.85" angle="238.51" type="car@0" speed="6.70" pos="71.60" lane="e3_0" slope="0.00"/>
        <vehicle id="1" x="112.75" y="-14.63" angle="238.51" type="car@1" speed="9.59" pos="54.47" lane="e3_1" slope="0.00"/>
        <vehicle id="2" x="161.24" y="16.37" angle="182.77" type="car@2" speed="5.47" pos="1.59" lane=":j3_0_1" slope="0.00"/>
        <vehicle id="3" x="164.66" y="25.49" angle="179.78" type="car@3" speed="9.84" pos="69.44" lane="e2_2" slope="0.00"/>
        <vehicle id="test" x="151.45" y="12.83" angle="238.51" type="ev@test" speed="5.78" pos="7.13" lane="e3_0" slope="0.00"/>
    </timestep>
    <timestep time="36.00">
        <vehicle id="0" x="89.91" y="-24.87" angle="238.51" type="car@0" speed="7.69" pos="79.29" lane="e3_0" slope="0.00"/>
        <vehicle id="1" x="106.46" y="-18.49" angle="238.51" type="car@1" speed="7.39" pos="61.86" lane="e3_1" slope="0.00"/>
        <vehicle id="2" x="157.91" y="13.03" angle="224.23" type="car@2" speed="4.86" pos="1.52" lane="e3_1" slope="0.00"/>
        <vehicle id="3" x="164.68" y="17.85" angle="179.92" type="car@3" speed="7.64" pos="0.10" lane=":j3_0_2" slope="0.00"/>
        <vehicle id="test" x="144.59" y="8.62" angle="238.51" type="ev@test" speed="8.05" pos="15.17" lane="e3_0" slope="0.00"/>
    </timestep>
    <timestep time="37.00">
        <vehicle id="0" x="85.23" y="-27.74" angle="238.51" type="car@0" speed="5.49" pos="84.78" lane="e3_0" slope="0.00"/>
        <vehicle id="1" x="97.97" y="-23.69" angle="238.51" type="car@1" speed="9.95" pos="71.81" lane="e3_1" slope="0.00"/>
        <vehicle id="2" x="151.68" y="9.21" angle="238.51" type="car@2" speed="7.30" pos="8.82" lane="e3_1" slope="0.00"/>
        <vehicle id="3" x="161.81" y="11.82" angle="212.96" type="car@3" speed="6.93" pos="7.03" lane=":j3_0_2" slope="0.00"/>
        <vehicle id="test" x="138.03" y="4.61" angle="238.51" type="ev@test" speed="7.69" pos="22.86" lane="e3_0" slope="0.00"/>
    </timestep>
    <timestep time="38.00">
        <vehicle id="0" x="82.42" y="-29.46" angle="238.51" type="car@0" speed="3.29" pos="88.07" lane="e3_0" slope="0.00"/>
        <vehicle id="1" x="91.36" y="-27.74" angle="238.51" type="car@1" speed="7.75" pos="79.56" lane="e3_1" slope="0.00"/>
        <vehicle id="2" x="144.87" y="5.04" angle="238.51" type="car@2" speed="7.99" pos="16.80" lane="e3_1" slope="0.00"/>
        <vehicle id="3" x="155.26" y="7.65" angle="238.51" type="car@3" speed="7.77" pos="6.58" lane="e3_2" slope="0.00"/>
        <vehicle id="test" x="131.74" y="0.75" angle="238.51" type="ev@test" speed="7.38" pos="30.25" lane="e3_0" slope="0.00"/>
    </timestep>
    <timestep time="39.00">
        <vehicle id="0" x="78.69" y="-28.87" angle="271.76" type="car@0" speed="4.15" pos="1.87" lane="e4_0" slope="0.00"/>
        <vehicle id="1" x="85.20" y="-31.52" angle="238.51" type="car@1" speed="7.23" pos="86.78" lane="e3_1" slope="0.00"/>
        <vehicle id="2" x="136.61" y="-0.02" angle="238.51" type="car@2" speed="9.69" pos="26.50" lane="e3_1" slope="0.00"/>
        <vehicle id="3" x="147.22" y="2.72" angle="238.51" type="car@3" speed="9.43" pos="16.01" lane="e3_2" slope="0.00"/>
        <vehicle id="test" x="124.19" y="-3.87" angle="238.51" type="ev@test" speed="8.85" pos="39.10" lane="e3_0" slope="0.00"/>
    </timestep>
    <timestep time="40.00">
        <vehicle id="0" x="73.99" y="-26.23" angle="299.33" type="car@0" speed="5.39" pos="7.26" lane="e4_0" slope="0.00"/>
        <vehicle id="1" x="80.59" y="-33.17" angle="250.29" type="car@1" speed="5.03" pos="3.16" lane=":j4_0_1" slope="0.00"/>
        <vehicle id="2" x="128.91" y="-4.74" angle="238.51" type="car@2" speed="9.03" pos="35.53" lane="e3_1" slope="0.00"/>
        <vehicle id="3" x="141.05" y="-1.05" angle="238.51" type="car@3" speed="7.23" pos="23.25" lane="e3_2" slope="0.00"/>
        <vehicle id="test" x="118.30" y="-7.48" angle="238.51" type="ev@test" speed="6.90" pos="46.00" lane="e3_0" slope="0.00"/>
    </timestep>
    <timestep time="41.00">
        <vehicle id="0" x="66.52" y="-22.04" angle="299.33" type="car@0" speed="8.56" pos="15.82" lane="e4_0" slope="0.00"/>
        <vehicle id="1" x="76.74" y="-31.45" angle="291.12" type="car@1" speed="4.25" pos="2.30" lane="e4_1" slope="0.00"/>
        <vehicle id="2" x="121.83" y="-9.08" angle="238.51" type="car@2" speed="8.30" pos="43.83" lane="e3_1" slope="0.00"/>
        <vehicle id="3" x="134.39" y="-5.13" angle="238.51" type="car@3" speed="7.81" pos="31.06" lane="e3_2" slope="0.00"/>
        <vehicle id="test" x="109.85" y="-12.66" angle="238.51" type="ev@test" speed="9.91" pos="55.91" lane="e3_0" slope="0.00"/>
    </timestep>
    <timestep time="42.00">
        <vehicle id="0" x="59.32" y="-17.99" angle="299.33" type="car@0" speed="8.27" pos="24.09" lane="e4_0" slope="0.00"/>
        <vehicle id="1" x="71.41" y="-28.45" angle="299.34" type="car@1" speed="6.12" pos="8.42" lane="e4_1" slope="0.00"/>
        <vehicle id="2" x="114.94" y="-13.30" angle="238.51" type="car@2" speed="8.08" pos="51.91" lane="e3_1" slope="0.00"/>
        <vehicle id="3" x="127.02" y="-9.65" angle="238.51" type="car@3" speed="8.64" pos="39.70" lane="e3_2" slope="0.00"/>
        <vehicle id="test" x="102.87" y="-16.93" angle="238.51" type="ev@test" speed="8.19" pos="64.10" lane="e3_0" slope="0.00"/>
    </timestep>
    <timestep time="43.00">
        <vehicle id="0" x="50.99" y="-13.31" angle="299.33" type="car@0" speed="9.55" pos="33.64" lane="e4_0" slope="0.00"/>
        <vehicle id="1" x="65.76" y="-25.28" angle="299.34" type="car@1" speed="6.48" pos="14.90" lane="e4_1" slope="0.00"/>
        <vehicle id="2" x="109.30" y="-16.75" angle="238.51" type="car@2" speed="6.62" pos="58.52" lane="e3_1" slope="0.00"/>
        <vehicle id="3" x="120.99" y="-13.34" angle="238.51" type="car@3" speed="7.08" pos="46.77" lane="e3_2" slope="0.00"/>
        <vehicle id="test" x="95.61" y="-21.38" angle="238.51" type="ev@test" speed="8.51" pos="72.60" lane="e3_0" slope="0.00"/>
    </timestep>
    <timestep time="44.00">
        <vehicle id="0" x="44.58" y="-9.71" angle="299.33" type="car@0" speed="7.35" pos="40.99" lane="e4_0" slope="0.00"/>
        <vehicle id="1" x="57.46" y="-20.61" angle="299.34" type="car@1" speed="9.53" pos="24.43" lane="e4_1" slope="0.00"/>
        <vehicle id="2" x="102.70" y="-20.79" angle="238.51" type="car@2" speed="7.73" pos="66.26" lane="e3_1" slope="0.00"/>
        <vehicle id="3" x="112.57" y="-18.50" angle="238.51" type="car@3" speed="9.88" pos="56.65" lane="e3_2" slope="0.00"/>
        <vehicle id="test" x="89.41" y="-25.18" angle="238.51" type="ev@test" speed="7.28" pos="79.88" lane="e3_0" slope="0.00"/>
    </timestep>
    <timestep time="45.00">
        <vehicle id="0" x="38.64" y="-6.37" angle="299.33" type="car@0" speed="6.81" pos="47.80" lane="e4_0" slope="0.00"/>
        <vehicle id="1" x="50.14" y="-16.50" angle="299.34" type="car@1" speed="8.40" pos="32.82" lane="e4_1" slope="0.00"/>
        <vehicle id="2" x="96.50" y="-24.59" angle="238.51" type="car@2" speed="7.28" pos="73.54" lane="e3_1" slope="0.00"/>
        <vehicle id="3" x="106.02" y="-22.52" angle="238.51" type="car@3" speed="7.68" pos="64.33" lane="e3_2" slope="0.00"/>
        <vehicle id="test" x="85.07" y="-27.83" angle="238.51" type="ev@test" speed="5.08" pos="84.96" lane="e3_0" slope="0.00"/>
    </timestep>
    <timestep time="46.00">
        <vehicle id="0" x="32.51" y="-2.93" angle="299.33" type="car@0" speed="7.04" pos="54.84" lane="e4_0" slope="0.00"/>
        <vehicle id="1" x="42.10" y="-11.98" angle="299.34" type="car@1" speed="9.22" pos="42.04" lane="e4_1" slope="0.00"/>
        <vehicle id="2" x="91.37" y="-27.74" angle="238.51" type="car@2" speed="6.01" pos="79.55" lane="e3_1" slope="0.00"/>
        <vehicle id="3" x="97.81" y="-27.54" angle="238.51" type="car@3" speed="9.62" pos="73.96" lane="e3_2" slope="0.00"/>
        <vehicle id="test" x="82.62" y="-29.34" angle="238.51" type="ev@test" speed="2.88" pos="87.84" lane="e3_0" slope="0.00"/>
    </timestep>
    <timestep time="47.00">
        <vehicle id="0" x="24.10" y="1.80" angle="299.33" type="car@0" speed="9.64" pos="64.48" lane="e4_0" slope="0.00"/>
        <vehicle id="1" x="35.52" y="-8.28" angle="299.34" type="car@1" speed="7.55" pos="49.59" lane="e4_1" slope="0.00"/>
        <vehicle id="2" x="84.29" y="-32.07" angle="238.51" type="car@2" speed="8.30" pos="87.85" lane="e3_1" slope="0.00"/>
        <vehicle id="3" x="90.91" y="-31.77" angle="238.51" type="car@3" speed="8.09" pos="82.05" lane="e3_2" slope="0.00"/>
        <vehicle id="test" x="81.28" y="-29.99" angle="239.69" type="ev@test" speed="1.50" pos="0.69" lane=":j4_0_0" slope="0.00"/>
    </timestep>
    <timestep time="48.00">
        <vehicle id="0" x="17.18" y="5.69" angle="299.33" type="car@0" speed="7.94" pos="72.42" lane="e4_0" slope="0.00"/>
        <vehicle id="1" x="27.52" y="-3.79" angle="299.34" type="car@1" speed="9.17" pos="58.76" lane="e4_1" slope="0.00"/>
        <vehicle id="2" x="78.59" y="-32.49" angle="271.53" type="car@2" speed="6.10" pos="0.19" lane="e4_1" slope="0.00"/>
        <vehicle id="3" x="85.89" y="-34.85" angle="238.51" type="car@3" speed="5.89" pos="87.94" lane="e3_2" slope="0.00"/>
        <vehicle id="test" x="77.88" y="-28.42" angle="270.30" type="ev@test" speed="3.80" pos="2.80" lane="e4_0" slope="0.00"/>
    </timestep>
    <timestep time="49.00">
        <vehicle id="0" x="8.80" y="10.40" angle="299.33" type="car@0" speed="9.61" pos="82.03" lane="e4_0" slope="0.00"/>
        <vehicle id="1" x="20.41" y="0.20" angle="299.34" type="car@1" speed="8.15" pos="66.92" lane="e4_1" slope="0.00"/>