<?xml version="1.0" encoding="UTF-8"?>

<!-- generated on 2024-08-09 10:23:03 by Eclipse SUMO GUI Version 1.20.0
<configuration xmlns:xsi="http://www.w3.org/2001/XMLSchema-instance" xsi:noNamespaceSchemaLocation="http://sumo.dlr.de/xsd/sumoConfiguration.xsd">

    <input>
        <net-file value="test.net.xml"/>
        <route-files value="test.rou.xml"/>
    </input>

    <output>
        <fcd-output value="FCD.xml"/>
        <edgedata-output value="edgeOutput.xml"/>
        <lanedata-output value="laneOutput.xml"/>
    </output>

    <traci_server>
        <remote-port value="53163"/>
    </traci_server>

</configuration>
-->

<fcd-export xmlns:xsi="http://www.w3.org/2001/XMLSchema-instance" xsi:noNamespaceSchemaLocation="http://sumo.dlr.de/xsd/fcd_file.xsd">
    <timestep time="0.00">
        <vehicle id="0" x="85.79" y="131.01" angle="115.93" type="car" speed="0.00" pos="5.10" lane="e1_0" slope="0.00"/>
    </timestep>
    <timestep time="1.00">
        <vehicle id="0" x="88.93" y="129.48" angle="115.93" type="car" speed="3.50" pos="8.60" lane="e1_0" slope="0.00"/>
    </timestep>
    <timestep time="2.00">
        <vehicle id="0" x="95.23" y="126.42" angle="115.93" type="car" speed="7.00" pos="15.60" lane="e1_0" slope="0.00"/>
    </timestep>
    <timestep time="3.00">
        <vehicle id="0" x="104.22" y="122.05" angle="115.93" type="car" speed="10.00" pos="25.60" lane="e1_0" slope="0.00"/>
        <vehicle id="1" x="85.79" y="131.01" angle="115.93" type="car" speed="0.00" pos="5.10" lane="e1_0" slope="0.00"/>
    </timestep>
    <timestep time="4.00">
        <vehicle id="0" x="113.22" y="117.67" angle="115.93" type="car" speed="10.00" pos="35.60" lane="e1_0" slope="0.00"/>
        <vehicle id="1" x="88.93" y="129.48" angle="115.93" type="car" speed="3.50" pos="8.60" lane="e1_0" slope="0.00"/>
    </timestep>
    <timestep time="5.00">
        <vehicle id="0" x="122.21" y="113.30" angle="115.93" type="car" speed="10.00" pos="45.60" lane="e1_0" slope="0.00"/>
        <vehicle id="1" x="95.23" y="126.42" angle="115.93" type="car" speed="7.00" pos="15.60" lane="e1_0" slope="0.00"/>
    </timestep>
    <timestep time="6.00">
        <vehicle id="0" x="131.21" y="108.93" angle="115.93" type="car" speed="10.00" pos="55.60" lane="e1_0" slope="0.00"/>
        <vehicle id="1" x="104.22" y="122.05" angle="115.93" type="car" speed="10.00" pos="25.60" lane="e1_0" slope="0.00"/>
        <vehicle id="test" x="87.59" y="130.14" angle="115.93" type="ev" speed="0.00" pos="7.10" lane="e1_0" slope="0.00"/>
    </timestep>
    <timestep time="7.00">
        <vehicle id="0" x="140.20" y="104.56" angle="115.93" type="car" speed="10.00" pos="65.60" lane="e1_0" slope="0.00"/>
        <vehicle id="1" x="113.22" y="117.67" angle="115.93" type="car" speed="10.00" pos="35.60" lane="e1_0" slope="0.00"/>
        <vehicle id="test" x="90.73" y="128.61" angle="115.93" type="ev" speed="3.50" pos="10.60" lane="e1_0" slope="0.00"/>
    </timestep>
    <timestep time="8.00">
        <vehicle id="0" x="147.96" y="100.78" angle="115.93" type="car" speed="8.63" pos="74.23" lane="e1_0" slope="0.00"/>
        <vehicle id="1" x="122.21" y="113.30" angle="115.93" type="car" speed="10.00" pos="45.60" lane="e1_0" slope="0.00"/>
        <vehicle id="test" x="97.03" y="125.54" angle="115.93" type="ev" speed="7.00" pos="17.60" lane="e1_0" slope="0.00"/>
    </timestep>
    <timestep time="9.00">
        <vehicle id="0" x="153.74" y="97.97" angle="115.93" type="car" speed="6.43" pos="80.66" lane="e1_0" slope="0.00"/>
        <vehicle id="1" x="131.21" y="108.93" angle="115.93" type="car" speed="10.00" pos="55.60" lane="e1_0" slope="0.00"/>
        <vehicle id="2" x="85.79" y="131.01" angle="115.93" type="car" speed="0.00" pos="5.10" lane="e1_0" slope="0.00"/>
        <vehicle id="test" x="106.02" y="121.17" angle="115.93" type="ev" speed="10.00" pos="27.60" lane="e1_0" slope="0.00"/>
    </timestep>
    <timestep time="10.00">
        <vehicle id="0" x="157.51" y="96.06" angle="116.79" type="car" speed="4.23" pos="0.50" lane=":j2_0_0" slope="0.00"/>
        <vehicle id="1" x="140.85" y="107.79" angle="115.93" type="car" speed="9.16" pos="64.76" lane="e1_1" slope="0.00"/>
        <vehicle id="2" x="88.93" y="129.48" angle="115.93" type="car" speed="3.50" pos="8.60" lane="e1_0" slope="0.00"/>
        <vehicle id="test" x="115.02" y="116.80" angle="115.93" type="ev" speed="10.00" pos="37.60" lane="e1_0" slope="0.00"/>
    </timestep>
    <timestep time="11.00">
        <vehicle id="0" x="158.01" y="91.96" angle="165.58" type="car" speed="4.23" pos="2.94" lane="e2_0" slope="0.00"/>
        <vehicle id="1" x="149.84" y="103.42" angle="115.93" type="car" speed="10.00" pos="74.76" lane="e1_1" slope="0.00"/>
        <vehicle id="2" x="95.23" y="126.42" angle="115.93" type="car" speed="7.00" pos="15.60" lane="e1_0" slope="0.00"/>
        <vehicle id="test" x="124.01" y="112.43" angle="115.93" type="ev" speed="10.00" pos="47.60" lane="e1_0" slope="0.00"/>
    </timestep>
    <timestep time="12.00">
        <vehicle id="0" x="158.04" y="84.23" angle="179.78" type="car" speed="7.73" pos="10.67" lane="e2_0" slope="0.00"/>
        <vehicle id="1" x="157.09" y="99.89" angle="115.93" type="car" speed="8.06" pos="82.83" lane="e1_1" slope="0.00"/>
        <vehicle id="2" x="104.22" y="122.05" angle="115.93" type="car" speed="10.00" pos="25.60" lane="e1_0" slope="0.00"/>
        <vehicle id="3" x="85.79" y="131.01" angle="115.93" type="car" speed="0.00" pos="5.10" lane="e1_0" slope="0.00"/>
        <vehicle id="test" x="133.01" y="108.05" angle="115.93" type="ev" speed="10.00" pos="57.60" lane="e1_0" slope="0.00"/>
    </timestep>
    <timestep time="13.00">
        <vehicle id="0" x="158.08" y="74.23" angle="179.78" type="car" speed="10.00" pos="20.67" lane="e2_0" slope="0.00"/>
        <vehicle id="1" x="161.07" y="95.98" angle="137.87" type="car" speed="5.86" pos="4.30" lane=":j2_0_1" slope="0.00"/>
        <vehicle id="2" x="113.22" y="117.67" angle="115.93" type="car" speed="10.00" pos="35.60" lane="e1_0" slope="0.00"/>
        <vehicle id="3" x="88.93" y="129.48" angle="115.93" type="car" speed="3.50" pos="8.60" lane="e1_0" slope="0.00"/>
        <vehicle id="test" x="142.00" y="103.68" angle="115.93" type="ev" speed="10.00" pos="67.60" lane="e1_0" slope="0.00"/>
    </timestep>
    <timestep time="14.00">
        <vehicle id="0" x="158.12" y="64.23" angle="179.78" type="car" speed="10.00" pos="30.67" lane="e2_0" slope="0.00"/>
        <vehicle id="1" x="161.22" y="90.12" angle="179.51" type="car" speed="5.86" pos="4.80" lane="e2_1" slope="0.00"/>
        <vehicle id="2" x="122.21" y="113.30" angle="115.93" type="car" speed="10.00" pos="45.60" lane="e1_0" slope="0.00"/>
        <vehicle id="3" x="95.23" y="126.42" angle="115.93" type="car" speed="7.00" pos="15.60" lane="e1_0" slope="0.00"/>
        <vehicle id="test" x="149.58" y="99.99" angle="115.93" type="ev" speed="8.43" pos="76.03" lane="e1_0" slope="0.00"/>
    </timestep>
    <timestep time="15.00">
        <vehicle id="0" x="158.15" y="54.23" angle="179.78" type="car" speed="10.00" pos="40.67" lane="e2_0" slope="0.00"/>
        <vehicle id="1" x="161.25" y="80.76" angle="179.78" type="car" speed="9.36" pos="14.16" lane="e2_1" slope="0.00"/>
        <vehicle id="2" x="131.21" y="108.93" angle="115.93" type="car" speed="10.00" pos="55.60" lane="e1_0" slope="0.00"/>
        <vehicle id="3" x="104.22" y="122.05" angle="115.93" type="car" speed="10.00" pos="25.60" lane="e1_0" slope="0.00"/>
        <vehicle id="test" x="155.19" y="97.27" angle="115.93" type="ev" speed="6.23" pos="82.26" lane="e1_0" slope="0.00"/>
    </timestep>
    <timestep time="16.00">
        <vehicle id="0" x="158.19" y="44.23" angle="179.78" type="car" speed="10.00" pos="50.67" lane="e2_0" slope="0.00"/>
        <vehicle id="1" x="161.29" y="70.76" angle="179.78" type="car" speed="10.00" pos="24.16" lane="e2_1" slope="0.00"/>
        <vehicle id="2" x="140.71" y="107.86" angle="115.93" type="car" speed="9.00" pos="64.60" lane="e1_1" slope="0.00"/>
        <vehicle id="3" x="113.22" y="117.67" angle="115.93" type="car" speed="10.00" pos="35.60" lane="e1_0" slope="0.00"/>
        <vehicle id="test" x="158.00" y="94.79" angle="124.60" type="ev" speed="4.03" pos="0.11" lane="e2_0" slope="0.00"/>
    </timestep>
    <timestep time="17.00">
        <vehicle id="0" x="158.23" y="34.23" angle="179.78" type="car" speed="10.00" pos="60.67" lane="e2_0" slope="0.00"/>
        <vehicle id="1" x="161.33" y="60.75" angle="179.78" type="car" speed="10.00" pos="34.16" lane="e2_1" slope="0.00"/>
        <vehicle id="2" x="149.70" y="103.49" angle="115.93" type="car" speed="10.00" pos="74.60" lane="e1_1" slope="0.00"/>
        <vehicle id="3" x="122.21" y="113.30" angle="115.93" type="car" speed="10.00" pos="45.60" lane="e1_0" slope="0.00"/>
        <vehicle id="test" x="158.03" y="87.25" angle="179.78" type="ev" speed="7.53" pos="7.65" lane="e2_0" slope="0.00"/>
    </timestep>
    <timestep time="18.00">
        <vehicle id="0" x="158.26" y="25.56" angle="179.78" type="car" speed="8.67" pos="69.34" lane="e2_0" slope="0.00"/>
        <vehicle id="1" x="161.37" y="50.75" angle="179.78" type="car" speed="10.00" pos="44.16" lane="e2_1" slope="0.00"/>
        <vehicle id="2" x="157.76" y="99.57" angle="115.93" type="car" speed="8.97" pos="83.57" lane="e1_1" slope="0.00"/>
        <vehicle id="3" x="131.21" y="108.93" angle="115.93" type="car" speed="10.00" pos="55.60" lane="e1_0" slope="0.00"/>
        <vehicle id="test" x="158.07" y="77.25" angle="179.78" type="ev" speed="10.00" pos="17.65" lane="e2_0" slope="0.00"/>
    </timestep>
    <timestep time="19.00">
        <vehicle id="0" x="158.29" y="19.09" angle="179.78" type="car" speed="6.47" pos="75.81" lane="e2_0" slope="0.00"/>
        <vehicle id="1" x="161.40" y="40.75" angle="179.78" type="car" speed="10.00" pos="54.16" lane="e2_1" slope="0.00"/>
        <vehicle id="2" x="161.20" y="94.34" angle="156.37" type="car" speed="6.77" pos="0.58" lane="e2_1" slope="0.00"/>
        <vehicle id="3" x="140.20" y="104.56" angle="115.93" type="car" speed="10.00" pos="65.60" lane="e1_0" slope="0.00"/>
        <vehicle id="test" x="158.10" y="67.25" angle="179.78" type="ev" speed="10.00" pos="27.65" lane="e2_0" slope="0.00"/>
    </timestep>
    <timestep time="20.00">
        <vehicle id="0" x="156.28" y="15.79" angle="206.39" type="car" speed="4.27" pos="1.46" lane="e3_0" slope="0.00"/>
        <vehicle id="1" x="161.44" y="30.75" angle="179.78" type="car" speed="10.00" pos="64.16" lane="e2_1" slope="0.00"/>
        <vehicle id="2" x="161.24" y="84.34" angle="179.78" type="car" speed="10.00" pos="10.58" lane="e2_1" slope="0.00"/>
        <vehicle id="3" x="147.86" y="100.83" angle="115.93" type="car" speed="8.51" pos="74.11" lane="e1_0" slope="0.00"/>
        <vehicle id="test" x="158.14" y="57.25" angle="179.78" type="ev" speed="10.00" pos="37.65" lane="e2_0" slope="0.00"/>
    </timestep>
    <timestep time="21.00">
        <vehicle id="0" x="149.66" y="11.73" angle="238.51" type="car" speed="7.77" pos="9.23" lane="e3_0" slope="0.00"/>
        <vehicle id="1" x="161.47" y="22.62" angle="179.78" type="car" speed="8.13" pos="72.29" lane="e2_1" slope="0.00"/>
        <vehicle id="2" x="161.28" y="74.34" angle="179.78" type="car" speed="10.00" pos="20.58" lane="e2_1" slope="0.00"/>
        <vehicle id="3" x="153.53" y="98.08" angle="115.93" type="car" speed="6.31" pos="80.42" lane="e1_0" slope="0.00"/>
        <vehicle id="test" x="158.18" y="47.25" angle="179.78" type="ev" speed="10.00" pos="47.65" lane="e2_0" slope="0.00"/>
    </timestep>
    <timestep time="22.00">
        <vehicle id="0" x="141.13" y="6.50" angle="238.51" type="car" speed="10.00" pos="19.23" lane="e3_0" slope="0.00"/>
        <vehicle id="1" x="161.35" y="16.70" angle="181.40" type="car" speed="5.93" pos="1.24" lane=":j3_0_1" slope="0.00"/>
        <vehicle id="2" x="161.32" y="64.34" angle="179.78" type="car" speed="10.00" pos="30.58" lane="e2_1" slope="0.00"/>
        <vehicle id="3" x="157.22" y="96.26" angle="116.15" type="car" speed="4.11" pos="0.14" lane=":j2_0_0" slope="0.00"/>
        <vehicle id="test" x="158.22" y="37.25" angle="179.78" type="ev" speed="10.00" pos="57.65" lane="e2_0" slope="0.00"/>
    </timestep>
    <timestep time="23.00">
        <vehicle id="0" x="132.60" y="1.28" angle="238.51" type="car" speed="10.00" pos="29.23" lane="e3_0" slope="0.00"/>
        <vehicle id="1" x="157.29" y="12.65" angle="229.60" type="car" speed="5.93" pos="2.24" lane="e3_1" slope="0.00"/>
        <vehicle id="2" x="161.35" y="54.34" angle="179.78" type="car" speed="10.00" pos="40.58" lane="e2_1" slope="0.00"/>
        <vehicle id="3" x="158.01" y="92.44" angle="159.51" type="car" speed="4.11" pos="2.46" lane="e2_0" slope="0.00"/>
        <vehicle id="test" x="158.25" y="28.61" angle="179.78" type="ev" speed="8.64" pos="66.29" lane="e2_0" slope="0.00"/>
    </timestep>
    <timestep time="24.00">
        <vehicle id="0" x="124.07" y="-3.95" angle="238.51" type="car" speed="10.00" pos="39.23" lane="e3_0" slope="0.00"/>
        <vehicle id="1" x="147.58" y="10.45" angle="238.51" type="car" speed="9.43" pos="11.67" lane="e3_0" slope="0.00"/>
        <vehicle id="2" x="161.39" y="44.33" angle="179.78" type="car" speed="10.00" pos="50.58" lane="e2_1" slope="0.00"/>
        <vehicle id="3" x="158.04" y="84.83" angle="179.78" type="car" speed="7.61" pos="10.07" lane="e2_0" slope="0.00"/>
        <vehicle id="test" x="158.27" y="22.16" angle="179.78" type="ev" speed="6.44" pos="72.74" lane="e2_0" slope="0.00"/>
    </timestep>
    <timestep time="25.00">
        <vehicle id="0" x="115.54" y="-9.17" angle="238.51" type="car" speed="10.00" pos="49.23" lane="e3_0" slope="0.00"/>
        <vehicle id="1" x="139.05" y="5.23" angle="238.51" type="car" speed="10.00" pos="21.67" lane="e3_0" slope="0.00"/>
        <vehicle id="2" x="161.43" y="34.33" angle="179.78" type="car" speed="10.00" pos="60.58" lane="e2_1" slope="0.00"/>
        <vehicle id="3" x="158.08" y="74.83" angle="179.78" type="car" speed="10.00" pos="20.07" lane="e2_0" slope="0.00"/>
        <vehicle id="test" x="158.29" y="17.92" angle="179.78" type="ev" speed="4.24" pos="76.98" lane="e2_0" slope="0.00"/>
    </timestep>
    <timestep time="26.00">
        <vehicle id="0" x="107.02" y="-14.39" angle="238.51" type="car" speed="10.00" pos="59.23" lane="e3_0" slope="0.00"/>
        <vehicle id="1" x="130.52" y="0.01" angle="238.51" type="car" speed="10.00" pos="31.67" lane="e3_0" slope="0.00"/>
        <vehicle id="2" x="161.46" y="25.03" angle="179.78" type="car" speed="9.30" pos="69.88" lane="e2_1" slope="0.00"/>
        <vehicle id="3" x="158.11" y="64.83" angle="179.78" type="car" speed="10.00" pos="30.07" lane="e2_0" slope="0.00"/>
        <vehicle id="test" x="155.46" y="15.28" angle="206.88" type="ev" speed="4.07" pos="2.43" lane="e3_0" slope="0.00"/>
    </timestep>
    <timestep time="27.00">
        <vehicle id="0" x="98.49" y="-19.62" angle="238.51" type="car" speed="10.00" pos="69.23" lane="e3_0" slope="0.00"/>
        <vehicle id="1" x="121.99" y="-5.22" angle="238.51" type="car" speed="10.00" pos="41.67" lane="e3_0" slope="0.00"/>
        <vehicle id="2" x="161.49" y="17.93" angle="179.78" type="car" speed="7.10" pos="76.98" lane="e2_1" slope="0.00"/>
        <vehicle id="3" x="158.15" y="54.83" angle="179.78" type="car" speed="10.00" pos="40.07" lane="e2_0" slope="0.00"/>
        <vehicle id="test" x="149.00" y="11.32" angle="238.51" type="ev" speed="7.57" pos="10.00" lane="e3_0" slope="0.00"/>
    </timestep>
    <timestep time="28.00">
        <vehicle id="0" x="91.09" y="-24.15" angle="238.51" type="car" speed="8.67" pos="77.91" lane="e3_0" slope="0.00"/>
        <vehicle id="1" x="113.47" y="-10.44" angle="238.51" type="car" speed="10.00" pos="51.67" lane="e3_0" slope="0.00"/>
        <vehicle id="2" x="155.90" y="15.55" angle="225.26" type="car" speed="6.84" pos="1.91" lane="e3_0" slope="0.00"/>
        <vehicle id="3" x="158.19" y="44.83" angle="179.78" type="car" speed="10.00" pos="50.07" lane="e2_0" slope="0.00"/>
        <vehicle id="test" x="140.47" y="6.10" angle="238.51" type="ev" speed="10.00" pos="20.00" lane="e3_0" slope="0.00"/>
    </timestep>
    <timestep time="29.00">
        <vehicle id="0" x="85.57" y="-27.53" angle="238.51" type="car" speed="6.47" pos="84.38" lane="e3_0" slope="0.00"/>
        <vehicle id="1" x="104.94" y="-15.67" angle="238.51" type="car" speed="10.00" pos="61.67" lane="e3_0" slope="0.00"/>
        <vehicle id="2" x="147.61" y="10.47" angle="238.51" type="car" speed="9.72" pos="11.63" lane="e3_0" slope="0.00"/>
        <vehicle id="3" x="158.23" y="34.83" angle="179.78" type="car" speed="10.00" pos="60.07" lane="e2_0" slope="0.00"/>
        <vehicle id="test" x="131.94" y="0.88" angle="238.51" type="ev" speed="10.00" pos="30.00" lane="e3_0" slope="0.00"/>
    </timestep>
    <timestep time="30.00">
        <vehicle id="0" x="81.93" y="-29.76" angle="238.51" type="car" speed="4.27" pos="0.00" lane=":j4_0_0" slope="0.00"/>
        <vehicle id="1" x="99.21" y="-22.93" angle="238.51" type="car" speed="8.69" pos="70.36" lane="e3_1" slope="0.00"/>
        <vehicle id="2" x="139.28" y="5.37" angle="238.51" type="car" speed="9.77" pos="21.41" lane="e3_0" slope="0.00"/>
        <vehicle id="3" x="158.26" y="26.27" angle="179.78" type="car" speed="8.55" pos="68.63" lane="e2_0" slope="0.00"/>
        <vehicle id="test" x="123.42" y="-4.35" angle="238.51" type="ev" speed="10.00" pos="40.00" lane="e3_0" slope="0.00"/>
    </timestep>
    <timestep time="31.00">
        <vehicle id="0" x="78.10" y="-28.54" angle="280.49" type="car" speed="4.25" pos="2.55" lane="e4_0" slope="0.00"/>
        <vehicle id="1" x="90.68" y="-28.16" angle="238.51" type="car" speed="10.00" pos="80.36" lane="e3_1" slope="0.00"/>
        <vehicle id="2" x="130.90" y="0.24" angle="238.51" type="car" speed="9.82" pos="31.22" lane="e3_0" slope="0.00"/>
        <vehicle id="3" x="158.28" y="19.92" angle="179.78" type="car" speed="6.35" pos="74.98" lane="e2_0" slope="0.00"/>
        <vehicle id="test" x="114.89" y="-9.57" angle="238.51" type="ev" speed="10.00" pos="50.00" lane="e3_0" slope="0.00"/>
    </timestep>
    <timestep time="32.00">
        <vehicle id="0" x="71.34" y="-24.74" angle="299.33" type="car" speed="7.75" pos="10.30" lane="e4_0" slope="0.00"/>
        <vehicle id="1" x="83.77" y="-32.39" angle="238.51" type="car" speed="8.10" pos="88.46" lane="e3_1" slope="0.00"/>
        <vehicle id="2" x="122.50" y="-4.91" angle="238.51" type="car" speed="9.86" pos="41.08" lane="e3_0" slope="0.00"/>
        <vehicle id="3" x="157.09" y="16.28" angle="194.80" type="car" speed="4.15" pos="0.51" lane="e3_0" slope="0.00"/>
        <vehicle id="test" x="106.36" y="-14.80" angle="238.51" type="ev" speed="10.00" pos="60.00" lane="e3_0" slope="0.00"/>
    </timestep>
    <timestep time="33.00">
        <vehicle id="0" x="62.62" y="-19.84" angle="299.33" type="car" speed="10.00" pos="20.30" lane="e4_0" slope="0.00"/>
        <vehicle id="1" x="78.22" y="-32.28" angle="276.08" type="car" speed="5.90" pos="0.60" lane="e4_1" slope="0.00"/>
        <vehicle id="2" x="114.07" y="-10.07" angle="238.51" type="car" speed="9.88" pos="50.96" lane="e3_0" slope="0.00"/>
        <vehicle id="3" x="150.57" y="12.29" angle="238.51" type="car" speed="7.65" pos="8.16" lane="e3_0" slope="0.00"/>
        <vehicle id="test" x="97.83" y="-20.02" angle="238.51" type="ev" speed="10.00" pos="70.00" lane="e3_0" slope="0.00"/>
    </timestep>
    <timestep time="34.00">
        <vehicle id="0" x="53.90" y="-14.95" angle="299.33" type="car" speed="10.00" pos="30.30" lane="e4_0" slope="0.00"/>
        <vehicle id="1" x="70.03" y="-27.68" angle="299.34" type="car" speed="9.40" pos="10.00" lane="e4_1" slope="0.00"/>
        <vehicle id="2" x="107.30" y="-17.98" angle="238.51" type="car" speed="9.91" pos="60.87" lane="e3_1" slope="0.00"/>
        <vehicle id="3" x="142.04" y="7.06" angle="238.51" type="car" speed="10.00" pos="18.16" lane="e3_0" slope="0.00"/>
        <vehicle id="test" x="90.62" y="-24.43" angle="238.51" type="ev" speed="8.45" pos="78.46" lane="e3_0" slope="0.00"/>
    </timestep>
    <timestep time="35.00">
        <vehicle id="0" x="45.18" y="-10.05" angle="299.33" type="car" speed="10.00" pos="40.30" lane="e4_0" slope="0.00"/>
        <vehicle id="1" x="61.31" y="-22.78" angle="299.34" type="car" speed="10.00" pos="20.00" lane="e4_1" slope="0.00"/>
        <vehicle id="2" x="98.77" y="-23.20" angle="238.51" type="car" speed="10.00" pos="70.87" lane="e3_1" slope="0.00"/>
        <vehicle id="3" x="133.51" y="1.84" angle="238.51" type="car" speed="10.00" pos="28.16" lane="e3_0" slope="0.00"/>
        <vehicle id="test" x="85.29" y="-27.70" angle="238.51" type="ev" speed="6.25" pos="84.71" lane="e3_0" slope="0.00"/>
    </timestep>
    <timestep time="36.00">
        <vehicle id="0" x="36.46" y="-5.15" angle="299.33" type="car" speed="10.00" pos="50.30" lane="e4_0" slope="0.00"/>
        <vehicle id="1" x="52.59" y="-17.88" angle="299.34" type="car" speed="10.00" pos="30.00" lane="e4_1" slope="0.00"/>
        <vehicle id="2" x="90.25" y="-28.42" angle="238.51" type="car" speed="9.99" pos="80.86" lane="e3_1" slope="0.00"/>
        <vehicle id="3" x="124.98" y="-3.39" angle="238.51" type="car" speed="10.00" pos="38.16" lane="e3_0" slope="0.00"/>
        <vehicle id="test" x="81.83" y="-29.81" angle="238.60" type="ev" speed="4.05" pos="0.11" lane=":j4_0_0" slope="0.00"/>
    </timestep>
    <timestep time="37.00">
        <vehicle id="0" x="27.75" y="-0.25" angle="299.33" type="car" speed="10.00" pos="60.30" lane="e4_0" slope="0.00"/>
        <vehicle id="1" x="43.88" y="-12.98" angle="299.34" type="car" speed="10.00" pos="40.00" lane="e4_1" slope="0.00"/>
        <vehicle id="2" x="83.61" y="-32.49" angle="238.51" type="car" speed="7.79" pos="88.65" lane="e3_1" slope="0.00"/>
        <vehicle id="3" x="116.46" y="-8.61" angle="238.51" type="car" speed="10.00" pos="48.16" lane="e3_0" slope="0.00"/>
        <vehicle id="test" x="78.17" y="-28.58" angle="267.15" type="ev" speed="4.05" pos="2.46" lane="e4_0" slope="0.00"/>
    </timestep>
    <timestep time="38.00">
        <vehicle id="0" x="19.03" y="4.65" angle="299.33" type="car" speed="10.00" pos="70.30" lane="e4_0" slope="0.00"/>
        <vehicle id="1" x="35.16" y="-8.08" angle="299.34" type="car" speed="10.00" pos="50.00" lane="e4_1" slope="0.00"/>
        <vehicle id="2" x="77.27" y="-31.75" angle="286.50" type="car" speed="6.81" pos="1.70" lane="e4_1" slope="0.00"/>
        <vehicle id="3" x="107.93" y="-13.83" angle="238.51" type="car" speed="10.00" pos="58.16" lane="e3_0" slope="0.00"/>
        <vehicle id="test" x="71.59" y="-24.88" angle="299.33" type="ev" speed="7.55" pos="10.01" lane="e4_0" slope="0.00"/>
    </timestep>
    <timestep time="39.00">
        <vehicle id="0" x="10.31" y="9.55" angle="299.33" type="car" speed="10.00" pos="80.30" lane="e4_0" slope="0.00"/>
        <vehicle id="1" x="26.44" y="-3.18" angle="299.34" type="car" speed="10.00" pos="60.00" lane="e4_1" slope="0.00"/>
        <vehicle id="2" x="68.55" y="-26.85" angle="299.34" type="car" speed="10.00" pos="11.70" lane="e4_1" slope="0.00"/>
        <vehicle id="3" x="99.40" y="-19.06" angle="238.51" type="car" speed="10.00" pos="68.16" lane="e3_0" slope="0.00"/>
        <vehicle id="test" x="62.87" y="-19.99" angle="299.33" type="ev" speed="10.00" pos="20.01" lane="e4_0" slope="0.00"/>
    </timestep>
    <timestep time="40.00">
        <vehicle id="0" x="3.08" y="13.61" angle="299.33" type="car" speed="8.28" pos="88.59" lane="e4_0" slope="0.00"/>
        <vehicle id="1" x="17.72" y="1.72" angle="299.34" type="car" speed="10.00" pos="70.00" lane="e4_1" slope="0.00"/>
        <vehicle id="2" x="59.83" y="-21.95" angle="299.34" type="car" speed="10.00" pos="21.70" lane="e4_1" slope="0.00"/>
        <vehicle id="3" x="91.70" y="-23.77" angle="238.51" type="car" speed="9.03" pos="77.19" lane="e3_0" slope="0.00"/>
        <vehicle id="test" x="54.15" y="-15.09" angle="299.33" type="ev" speed="10.00" pos="30.01" lane="e4_0" slope="0.00"/>
    </timestep>
    <timestep time="41.00">
        <vehicle id="0" x="-2.22" y="16.59" angle="299.33" type="car" speed="6.08" pos="94.67" lane="e4_0" slope="0.00"/>
        <vehicle id="1" x="9.01" y="6.62" angle="299.34" type="car" speed="10.00" pos="80.00" lane="e4_1" slope="0.00"/>
        <vehicle id="2" x="51.11" y="-17.05" angle="299.34" type="car" speed="10.00" pos="31.70" lane="e4_1" slope="0.00"/>
        <vehicle id="3" x="85.88" y="-27.34" angle="238.51" type="car" speed="6.83" pos="84.02" lane="e3_0" slope="0.00"/>
        <vehicle id="test" x="45.43" y="-10.19" angle="299.33" type="ev" speed="10.00" pos="40.01" lane="e4_0" slope="0.00"/>
    </timestep>
    <timestep time="42.00">
        <vehicle id="0" x="-3.16" y="20.57" angle="340.07" type="car" speed="4.28" pos="2.66" lane="e5_0" slope="0.00"/>
        <vehicle id="1" x="1.65" y="10.75" angle="299.34" type="car" speed="8.43" pos="88.44" lane="e4_1" slope="0.00"/>
        <vehicle id="2" x="42.40" y="-12.15" angle="299.34" type="car" speed="10.00" pos="41.70" lane="e4_1" slope="0.00"/>
        <vehicle id="3" x="81.93" y="-29.76" angle="238.51" type="car" speed="4.63" pos="0.00" lane=":j4_0_0" slope="0.00"/>
        <vehicle id="test" x="36.72" y="-5.29" angle="299.33" type="ev" speed="10.00" pos="50.01" lane="e4_0" slope="0.00"/>
    </timestep>
    <timestep time="43.00">
        <vehicle id="0" x="-3.56" y="28.34" angle="357.10" type="car" speed="7.78" pos="10.44" lane="e5_0" slope="0.00"/>
        <vehicle id="1" x="-3.78" y="13.80" angle="299.34" type="car" speed="6.23" pos="94.67" lane="e4_1" slope="0.00"/>
        <vehicle id="2" x="33.68" y="-7.25" angle="299.34" type="car" speed="10.00" pos="51.70" lane="e4_1" slope="0.00"/>
        <vehicle id="3" x="78.20" y="-28.60" angle="278.99" type="car" speed="4.13" pos="2.43" lane="e4_0" slope="0.00"/>
        <vehicle id="test" x="28.00" y="-0.39" angle="299.33" type="ev" speed="10.00" pos="60.01" lane="e4_0" slope="0.00"/>
    </timestep>
    <timestep time="44.00">
        <vehicle id="0" x="-4.07" y="38.33" angle="357.10" type="car" speed="10.00" pos="20.44" lane="e5_0" slope="0.00"/>
        <vehicle id="1" x="-6.29" y="18.85" angle="338.86" type="car" speed="5.95" pos="1.10" lane="e5_1" slope="0.00"/>
        <vehicle id="2" x="24.96" y="-2.35" angle="299.34" type="car" speed="10.00" pos="61.70" lane="e4_1" slope="0.00"/>
        <vehicle id="3" x="71.55" y="-24.86" angle="299.33" type="car" speed="7.63" pos="10.06" lane="e4_0" slope="0.00"/>
        <vehicle id="test" x="19.28" y="4.51" angle="299.33" type="ev" speed="10.00" pos="70.01" lane="e4_0" slope="0.00"/>
    </timestep>
    <timestep time="45.00">
        <vehicle id="0" x="-4.57" y="48.31" angle="357.10" type="car" speed="10.00" pos="30.44" lane="e5_0" slope="0.00"/>
        <vehicle id="1" x="-6.76" y="28.28" angle="357.11" type="car" speed="9.45" pos="10.55" lane="e5_1" slope="0.00"/>
        <vehicle id="2" x="16.24" y="2.55" angle="299.34" type="car" speed="10.00" pos="71.70" lane="e4_1" slope="0.00"/>
        <vehicle id="3" x="62.83" y="-19.96" angle="299.33" type="car" speed="10.00" pos="20.06" lane="e4_0" slope="0.00"/>
        <vehicle id="test" x="10.56" y="9.41" angle="299.33" type="ev" speed="10.00" pos="80.01" lane="e4_0" slope="0.00"/>
    </timestep>
    <timestep time="46.00">
        <vehicle id="0" x="-5.08" y="58.30" angle="357.10" type="car" speed="10.00" pos="40.44" lane="e5_0" slope="0.00"/>
        <vehicle id="1" x="-7.27" y="38.27" angle="357.11" type="car" speed="10.00" pos="20.55" lane="e5_1" slope="0.00"/>
        <vehicle id="2" x="7.53" y="7.45" angle="299.34" type="car" speed="10.00" pos="81.70" lane="e4_1" slope="0.00"/>
        <vehicle id="3" x="54.11" y="-15.06" angle="299.33" type="car" speed="10.00" pos="30.06" lane="e4_0" slope="0.00"/>
        <vehicle id="test" x="3.21" y="13.54" angle="299.33" type="ev" speed="8.43" pos="88.44" lane="e4_0" slope="0.00"/>
    </timestep>
    <timestep time="47.00">
        <vehicle id="0" x="-5.58" y="68.29" angle="357.10" type="car" speed="10.00" pos="50.44" lane="e5_0" slope="0.00"/>
        <vehicle id="1" x="-7.77" y="48.26" angle="357.11" type="car" speed="10.00" pos="30.55" lane="e5_1" slope="0.00"/>
        <vehicle id="2" x="-0.38" y="11.89" angle="299.34" type="car" speed="9.06" pos="90.76" lane="e4_1" slope="0.00"/>
        <vehicle id="3" x="45.39" y="-10.16" angle="299.33" type="car" speed="10.00" pos="40.06" lane="e4_0" slope="0.00"/>
        <vehicle id="test" x="-2.22" y="16.59" angle="299.33" type="ev" speed="6.23" pos="94.67" lane="e4_0" slope="0.00"/>
    </timestep>
    <timestep time="48.00">
        <vehicle id="0" x="-6.02" y="76.91" angle="357.10" type="car" speed="8.63" pos="59.07" lane="e5_0" slope="0.00"/>
        <vehicle id="1" x="-8.28" y="58.24" angle="357.11" type="car" speed="10.00" pos="40.55" lane="e5_1" slope="0.00"/>
        <vehicle id="2" x="-5.76" y="15.93" angle="309.72" type="car" speed="6.86" pos="2.96" lane=":j5_0_1" slope="0.00"/>
        <vehicle id="3" x="36.67" y="-5.26" angle="299.33" type="car" speed="10.00" pos="50.06" lane="e4_0" slope="0.00"/>
        <vehicle id="test" x="-3.15" y="20.37" angle="326.26" type="ev" speed="4.08" pos="2.46" lane="e5_0" slope="0.00"/>
    </timestep>
    <timestep time="49.00">
        <vehicle id="0" x="-6.35" y="83.33" angle="357.10" type="car" speed="6.43" pos="65.50" lane="e5_0" slope="0.00"/>
        <vehicle id="1" x="-8.78" y="68.23" angle="357.11" type="car" speed="10.00" pos="50.55" lane="e5_1" slope="0.00"/>
        <vehicle id="2" x="-6.48" y="22.72" angle="357.07" type="car" speed="6.86" pos="4.97" lane="e5_1" slope="0.00"/>