<?xml version="1.0" encoding="UTF-8"?>

<!-- generated on 2024-08-09 15:38:12 by Eclipse SUMO GUI Version 1.20.0
<configuration xmlns:xsi="http://www.w3.org/2001/XMLSchema-instance" xsi:noNamespaceSchemaLocation="http://sumo.dlr.de/xsd/sumoConfiguration.xsd">

    <input>
        <net-file value="test.net.xml"/>
        <route-files value="test.rou.xml"/>
    </input>

    <output>
        <fcd-output value="FCD.xml"/>
        <edgedata-output value="edgeOutput.xml"/>
        <lanedata-output value="laneOutput.xml"/>
    </output>

    <traci_server>
        <remote-port value="61718"/>
    </traci_server>

</configuration>
-->

<fcd-export xmlns:xsi="http://www.w3.org/2001/XMLSchema-instance" xsi:noNamespaceSchemaLocation="http://sumo.dlr.de/xsd/fcd_file.xsd">
    <timestep time="0.00">
        <vehicle id="0" x="85.79" y="131.01" angle="115.93" type="car" speed="0.00" pos="5.10" lane="e1_0" slope="0.00"/>
    </timestep>
    <timestep time="1.00">
        <vehicle id="0" x="88.26" y="129.81" angle="115.93" type="car@0" speed="2.75" pos="7.85" lane="e1_0" slope="0.00"/>
    </timestep>
    <timestep time="2.00">
        <vehicle id="0" x="93.55" y="127.24" angle="115.93" type="car@0" speed="5.88" pos="13.73" lane="e1_0" slope="0.00"/>
    </timestep>
    <timestep time="3.00">
        <vehicle id="0" x="99.87" y="124.16" angle="115.93" type="car@0" speed="7.03" pos="20.76" lane="e1_0" slope="0.00"/>
        <vehicle id="1" x="85.79" y="131.01" angle="115.93" type="car" speed="0.00" pos="5.10" lane="e1_0" slope="0.00"/>
    </timestep>
    <timestep time="4.00">
        <vehicle id="0" x="106.91" y="120.74" angle="115.93" type="car@0" speed="7.83" pos="28.59" lane="e1_0" slope="0.00"/>
        <vehicle id="1" x="86.72" y="130.55" angle="115.93" type="car@1" speed="1.04" pos="6.14" lane="e1_0" slope="0.00"/>
    </timestep>
    <timestep time="5.00">
        <vehicle id="0" x="115.10" y="116.76" angle="115.93" type="car@0" speed="9.11" pos="37.69" lane="e1_0" slope="0.00"/>
        <vehicle id="1" x="88.10" y="129.88" angle="115.93" type="car@1" speed="1.53" pos="7.68" lane="e1_0" slope="0.00"/>
    </timestep>
    <timestep time="6.00">
        <vehicle id="0" x="123.16" y="112.84" angle="115.93" type="car@0" speed="8.96" pos="46.66" lane="e1_0" slope="0.00"/>
        <vehicle id="1" x="89.93" y="128.99" angle="115.93" type="car@1" speed="2.03" pos="9.71" lane="e1_0" slope="0.00"/>
    </timestep>
    <timestep time="7.00">
        <vehicle id="0" x="131.18" y="108.94" angle="115.93" type="car@0" speed="8.91" pos="55.57" lane="e1_0" slope="0.00"/>
        <vehicle id="1" x="94.69" y="126.68" angle="115.93" type="car@1" speed="5.29" pos="15.00" lane="e1_0" slope="0.00"/>
        <vehicle id="test" x="87.59" y="130.14" angle="115.93" type="ev" speed="0.00" pos="7.10" lane="e1_0" slope="0.00"/>
    </timestep>
    <timestep time="8.00">
        <vehicle id="0" x="138.22" y="105.52" angle="115.93" type="car@0" speed="7.84" pos="63.40" lane="e1_0" slope="0.00"/>
        <vehicle id="1" x="100.11" y="124.05" angle="115.93" type="car@1" speed="6.02" pos="21.02" lane="e1_0" slope="0.00"/>
        <vehicle id="test" x="87.97" y="129.95" angle="115.93" type="ev@test" speed="0.43" pos="7.53" lane="e1_0" slope="0.00"/>
    </timestep>
    <timestep time="9.00">
        <vehicle id="0" x="146.30" y="101.59" angle="115.93" type="car@0" speed="8.97" pos="72.38" lane="e1_0" slope="0.00"/>
        <vehicle id="1" x="106.58" y="120.90" angle="115.93" type="car@1" speed="7.20" pos="28.22" lane="e1_0" slope="0.00"/>
        <vehicle id="test" x="91.41" y="128.28" angle="115.93" type="ev@test" speed="3.82" pos="11.35" lane="e1_0" slope="0.00"/>
    </timestep>
    <timestep time="10.00">
        <vehicle id="0" x="152.39" y="98.63" angle="115.93" type="car@0" speed="6.77" pos="79.15" lane="e1_0" slope="0.00"/>
        <vehicle id="1" x="113.00" y="117.78" angle="115.93" type="car@1" speed="7.14" pos="35.36" lane="e1_0" slope="0.00"/>
        <vehicle id="2" x="85.79" y="131.01" angle="115.93" type="car" speed="0.00" pos="5.10" lane="e1_0" slope="0.00"/>
        <vehicle id="test" x="96.44" y="125.83" angle="115.93" type="ev@test" speed="5.60" pos="16.95" lane="e1_0" slope="0.00"/>
    </timestep>
    <timestep time="11.00">
        <vehicle id="0" x="156.50" y="96.63" angle="115.93" type="car@0" speed="4.57" pos="83.73" lane="e1_0" slope="0.00"/>
        <vehicle id="1" x="121.97" y="113.42" angle="115.93" type="car@1" speed="9.97" pos="45.33" lane="e1_0" slope="0.00"/>
        <vehicle id="2" x="87.85" y="130.01" angle="115.93" type="car@2" speed="2.30" pos="7.40" lane="e1_0" slope="0.00"/>
        <vehicle id="test" x="102.67" y="122.80" angle="115.93" type="ev@test" speed="6.93" pos="23.87" lane="e1_0" slope="0.00"/>
    </timestep>
    <timestep time="12.00">
        <vehicle id="0" x="157.99" y="94.98" angle="126.04" type="car@0" speed="2.37" pos="1.71" lane=":j2_0_0" slope="0.00"/>
        <vehicle id="1" x="128.95" y="110.02" angle="115.93" type="car@1" speed="7.77" pos="53.09" lane="e1_0" slope="0.00"/>
        <vehicle id="2" x="90.33" y="128.80" angle="115.93" type="car@2" speed="2.76" pos="10.15" lane="e1_0" slope="0.00"/>
        <vehicle id="test" x="110.88" y="118.81" angle="115.93" type="ev@test" speed="9.13" pos="33.00" lane="e1_0" slope="0.00"/>
    </timestep>
    <timestep time="13.00">
        <vehicle id="0" x="158.01" y="91.45" angle="171.48" type="car@0" speed="3.53" pos="3.45" lane="e2_0" slope="0.00"/>
        <vehicle id="1" x="135.27" y="106.95" angle="115.93" type="car@1" speed="7.03" pos="60.12" lane="e1_0" slope="0.00"/>
        <vehicle id="2" x="93.94" y="127.05" angle="115.93" type="car@2" speed="4.01" pos="14.16" lane="e1_0" slope="0.00"/>
        <vehicle id="3" x="85.79" y="131.01" angle="115.93" type="car" speed="0.00" pos="5.10" lane="e1_0" slope="0.00"/>
        <vehicle id="test" x="118.98" y="114.87" angle="115.93" type="ev@test" speed="9.01" pos="42.01" lane="e1_0" slope="0.00"/>
    </timestep>
    <timestep time="14.00">
        <vehicle id="0" x="158.04" y="84.67" angle="179.78" type="car@0" speed="6.78" pos="10.23" lane="e2_0" slope="0.00"/>
        <vehicle id="1" x="141.16" y="104.09" angle="115.93" type="car@1" speed="6.55" pos="66.67" lane="e1_0" slope="0.00"/>
        <vehicle id="2" x="99.03" y="124.57" angle="115.93" type="car@2" speed="5.66" pos="19.82" lane="e1_0" slope="0.00"/>
        <vehicle id="3" x="87.24" y="130.31" angle="115.93" type="car@3" speed="1.61" pos="6.71" lane="e1_0" slope="0.00"/>
        <vehicle id="test" x="127.72" y="110.62" angle="115.93" type="ev@test" speed="9.71" pos="51.72" lane="e1_0" slope="0.00"/>
    </timestep>
    <timestep time="15.00">
        <vehicle id="0" x="158.07" y="75.97" angle="179.78" type="car@0" speed="8.70" pos="18.93" lane="e2_0" slope="0.00"/>
        <vehicle id="1" x="145.89" y="101.79" angle="115.93" type="car@1" speed="5.26" pos="71.92" lane="e1_0" slope="0.00"/>
        <vehicle id="2" x="105.39" y="121.48" angle="115.93" type="car@2" speed="7.08" pos="26.90" lane="e1_0" slope="0.00"/>
        <vehicle id="3" x="90.67" y="128.63" angle="115.93" type="car@3" speed="3.82" pos="10.53" lane="e1_0" slope="0.00"/>
        <vehicle id="test" x="135.87" y="110.21" angle="115.93" type="ev@test" speed="7.51" pos="59.23" lane="e1_1" slope="0.00"/>
    </timestep>
    <timestep time="16.00">
        <vehicle id="0" x="158.10" y="69.37" angle="179.78" type="car@0" speed="6.60" pos="25.53" lane="e2_0" slope="0.00"/>
        <vehicle id="1" x="150.47" y="99.56" angle="115.93" type="car@1" speed="5.09" pos="77.02" lane="e1_0" slope="0.00"/>
        <vehicle id="2" x="112.80" y="117.88" angle="115.93" type="car@2" speed="8.24" pos="35.14" lane="e1_0" slope="0.00"/>
        <vehicle id="3" x="95.15" y="126.46" angle="115.93" type="car@3" speed="4.98" pos="15.51" lane="e1_0" slope="0.00"/>
        <vehicle id="test" x="141.85" y="107.31" angle="115.93" type="ev@test" speed="6.65" pos="65.88" lane="e1_1" slope="0.00"/>
    </timestep>
    <timestep time="17.00">
        <vehicle id="0" x="158.12" y="61.98" angle="179.78" type="car@0" speed="7.38" pos="32.92" lane="e2_0" slope="0.00"/>
        <vehicle id="1" x="154.97" y="97.37" angle="115.93" type="car@1" speed="5.01" pos="82.02" lane="e1_0" slope="0.00"/>
        <vehicle id="2" x="120.59" y="114.09" angle="115.93" type="car@2" speed="8.66" pos="43.79" lane="e1_0" slope="0.00"/>
        <vehicle id="3" x="101.22" y="123.51" angle="115.93" type="car@3" speed="6.74" pos="22.26" lane="e1_0" slope="0.00"/>
        <vehicle id="test" x="148.20" y="104.22" angle="115.93" type="ev@test" speed="7.06" pos="72.94" lane="e1_1" slope="0.00"/>
    </timestep>
    <timestep time="18.00">
        <vehicle id="0" x="158.15" y="55.30" angle="179.78" type="car@0" speed="6.68" pos="39.60" lane="e2_0" slope="0.00"/>
        <vehicle id="1" x="157.53" y="96.04" angle="116.91" type="car@1" speed="2.89" pos="0.52" lane=":j2_0_0" slope="0.00"/>
        <vehicle id="2" x="126.46" y="111.24" angle="115.93" type="car@2" speed="6.53" pos="50.32" lane="e1_0" slope="0.00"/>
        <vehicle id="3" x="107.21" y="120.60" angle="115.93" type="car@3" speed="6.66" pos="28.92" lane="e1_0" slope="0.00"/>
        <vehicle id="test" x="153.09" y="101.84" angle="115.93" type="ev@test" speed="5.44" pos="78.38" lane="e1_1" slope="0.00"/>
    </timestep>
    <timestep time="19.00">
        <vehicle id="0" x="158.18" y="46.63" angle="179.78" type="car@0" speed="8.67" pos="48.27" lane="e2_0" slope="0.00"/>
        <vehicle id="1" x="157.90" y="95.46" angle="121.06" type="car@1" speed="0.69" pos="1.21" lane=":j2_0_0" slope="0.00"/>
        <vehicle id="2" x="132.62" y="108.24" angle="115.93" type="car@2" speed="6.84" pos="57.17" lane="e1_0" slope="0.00"/>
        <vehicle id="3" x="115.43" y="116.60" angle="115.93" type="car@3" speed="9.14" pos="38.06" lane="e1_0" slope="0.00"/>
        <vehicle id="test" x="158.64" y="99.12" angle="116.10" type="ev@test" speed="6.18" pos="0.17" lane=":j2_0_1" slope="0.00"/>
    </timestep>
    <timestep time="20.00">
        <vehicle id="0" x="158.21" y="37.90" angle="179.78" type="car@0" speed="8.74" pos="57.00" lane="e2_0" slope="0.00"/>
        <vehicle id="1" x="158.01" y="92.13" angle="163.46" type="car@1" speed="3.34" pos="2.77" lane="e2_0" slope="0.00"/>
        <vehicle id="2" x="140.71" y="104.31" angle="115.93" type="car@2" speed="9.00" pos="66.16" lane="e1_0" slope="0.00"/>
        <vehicle id="3" x="124.02" y="112.42" angle="115.93" type="car@3" speed="9.55" pos="47.61" lane="e1_0" slope="0.00"/>
        <vehicle id="test" x="161.15" y="95.34" angle="136.71" type="ev@test" speed="4.78" pos="4.95" lane=":j2_0_1" slope="0.00"/>
    </timestep>
    <timestep time="21.00">
        <vehicle id="0" x="158.24" y="31.36" angle="179.78" type="car@0" speed="6.54" pos="63.54" lane="e2_0" slope="0.00"/>
        <vehicle id="1" x="158.03" y="87.56" angle="179.78" type="car@1" speed="4.57" pos="7.34" lane="e2_0" slope="0.00"/>
        <vehicle id="2" x="148.12" y="100.71" angle="115.93" type="car@2" speed="8.24" pos="74.40" lane="e1_0" slope="0.00"/>
        <vehicle id="3" x="130.83" y="109.11" angle="115.93" type="car@3" speed="7.57" pos="55.18" lane="e1_0" slope="0.00"/>
        <vehicle id="test" x="161.22" y="90.76" angle="173.35" type="ev@test" speed="4.58" pos="4.16" lane="e2_1" slope="0.00"/>
    </timestep>
    <timestep time="22.00">
        <vehicle id="0" x="158.26" y="24.81" angle="179.78" type="car@0" speed="6.55" pos="70.09" lane="e2_0" slope="0.00"/>
        <vehicle id="1" x="158.05" y="82.94" angle="179.78" type="car@1" speed="4.62" pos="11.96" lane="e2_0" slope="0.00"/>
        <vehicle id="2" x="153.55" y="98.07" angle="115.93" type="car@2" speed="6.04" pos="80.44" lane="e1_0" slope="0.00"/>
        <vehicle id="3" x="139.04" y="105.12" angle="115.93" type="car@3" speed="9.13" pos="64.31" lane="e1_0" slope="0.00"/>
        <vehicle id="test" x="161.24" y="83.19" angle="179.78" type="ev@test" speed="7.58" pos="11.73" lane="e2_1" slope="0.00"/>
    </timestep>
    <timestep time="23.00">
        <vehicle id="0" x="158.28" y="20.46" angle="179.78" type="car@0" speed="4.35" pos="74.44" lane="e2_0" slope="0.00"/>
        <vehicle id="1" x="158.06" y="77.92" angle="179.78" type="car@1" speed="5.03" pos="16.98" lane="e2_0" slope="0.00"/>
        <vehicle id="2" x="157.00" y="96.39" angle="115.93" type="car@2" speed="3.84" pos="84.28" lane="e1_0" slope="0.00"/>
        <vehicle id="3" x="146.67" y="104.96" angle="115.93" type="car@3" speed="6.93" pos="71.24" lane="e1_1" slope="0.00"/>
        <vehicle id="test" x="161.27" y="76.26" angle="179.78" type="ev@test" speed="6.92" pos="18.65" lane="e2_1" slope="0.00"/>
    </timestep>
    <timestep time="24.00">
        <vehicle id="0" x="158.29" y="18.30" angle="179.78" type="car@0" speed="2.15" pos="76.60" lane="e2_0" slope="0.00"/>
        <vehicle id="1" x="158.09" y="71.06" angle="179.78" type="car@1" speed="6.86" pos="23.84" lane="e2_0" slope="0.00"/>
        <vehicle id="2" x="157.97" y="95.16" angle="124.08" type="car@2" speed="1.64" pos="1.53" lane=":j2_0_0" slope="0.00"/>
        <vehicle id="3" x="153.13" y="101.82" angle="115.93" type="car@3" speed="7.18" pos="78.42" lane="e1_1" slope="0.00"/>
        <vehicle id="test" x="161.31" y="66.72" angle="179.78" type="ev@test" speed="9.54" pos="28.20" lane="e2_1" slope="0.00"/>
    </timestep>
    <timestep time="25.00">
        <vehicle id="0" x="155.64" y="15.39" angle="215.73" type="car@0" speed="4.24" pos="2.21" lane="e3_0" slope="0.00"/>
        <vehicle id="1" x="158.12" y="63.32" angle="179.78" type="car@1" speed="7.74" pos="31.58" lane="e2_0" slope="0.00"/>
        <vehicle id="2" x="158.01" y="92.83" angle="154.24" type="car@2" speed="2.33" pos="2.07" lane="e2_0" slope="0.00"/>
        <vehicle id="3" x="158.47" y="99.22" angle="115.93" type="car@3" speed="5.94" pos="84.36" lane="e1_1" slope="0.00"/>
        <vehicle id="test" x="161.34" y="58.00" angle="179.78" type="ev@test" speed="8.72" pos="36.92" lane="e2_1" slope="0.00"/>
    </timestep>
    <timestep time="26.00">
        <vehicle id="0" x="149.93" y="11.89" angle="238.51" type="car@0" speed="6.70" pos="8.91" lane="e3_0" slope="0.00"/>
        <vehicle id="1" x="158.15" y="54.45" angle="179.78" type="car@1" speed="8.87" pos="40.45" lane="e2_0" slope="0.00"/>
        <vehicle id="2" x="158.02" y="89.26" angle="179.78" type="car@2" speed="3.58" pos="5.64" lane="e2_0" slope="0.00"/>
        <vehicle id="3" x="161.20" y="94.18" angle="158.25" type="car@3" speed="6.14" pos="0.74" lane="e2_1" slope="0.00"/>
        <vehicle id="test" x="161.37" y="50.17" angle="179.78" type="ev@test" speed="7.82" pos="44.74" lane="e2_1" slope="0.00"/>
    </timestep>
    <timestep time="27.00">
        <vehicle id="0" x="141.60" y="6.79" angle="238.51" type="car@0" speed="9.77" pos="18.68" lane="e3_0" slope="0.00"/>
        <vehicle id="1" x="158.18" y="45.92" angle="179.78" type="car@1" speed="8.53" pos="48.98" lane="e2_0" slope="0.00"/>
        <vehicle id="2" x="158.04" y="84.96" angle="179.78" type="car@2" speed="4.29" pos="9.94" lane="e2_0" slope="0.00"/>
        <vehicle id="3" x="161.23" y="86.39" angle="179.78" type="car@3" speed="7.78" pos="8.52" lane="e2_1" slope="0.00"/>
        <vehicle id="test" x="161.41" y="40.29" angle="179.78" type="ev@test" speed="9.88" pos="54.62" lane="e2_1" slope="0.00"/>
    </timestep>
    <timestep time="28.00">
        <vehicle id="0" x="133.67" y="1.93" angle="238.51" type="car@0" speed="9.30" pos="27.98" lane="e3_0" slope="0.00"/>
        <vehicle id="1" x="158.22" y="36.46" angle="179.78" type="car@1" speed="9.46" pos="58.44" lane="e2_0" slope="0.00"/>
        <vehicle id="2" x="158.06" y="79.48" angle="179.78" type="car@2" speed="5.49" pos="15.42" lane="e2_0" slope="0.00"/>
        <vehicle id="3" x="161.27" y="76.81" angle="179.78" type="car@3" speed="9.58" pos="18.11" lane="e2_1" slope="0.00"/>
        <vehicle id="test" x="161.43" y="32.61" angle="179.78" type="ev@test" speed="7.68" pos="62.31" lane="e2_1" slope="0.00"/>
    </timestep>
    <timestep time="29.00">
        <vehicle id="0" x="125.86" y="-2.85" angle="238.51" type="car@0" speed="9.16" pos="37.14" lane="e3_0" slope="0.00"/>
        <vehicle id="1" x="158.25" y="29.20" angle="179.78" type="car@1" speed="7.26" pos="65.70" lane="e2_0" slope="0.00"/>
        <vehicle id="2" x="158.09" y="71.19" angle="179.78" type="car@2" speed="8.29" pos="23.71" lane="e2_0" slope="0.00"/>
        <vehicle id="3" x="161.30" y="67.46" angle="179.78" type="car@3" speed="9.35" pos="27.46" lane="e2_1" slope="0.00"/>
        <vehicle id="test" x="161.46" y="24.90" angle="179.78" type="ev@test" speed="7.70" pos="70.01" lane="e2_1" slope="0.00"/>
    </timestep>
    <timestep time="30.00">
        <vehicle id="0" x="117.95" y="-7.70" angle="238.51" type="car@0" speed="9.28" pos="46.42" lane="e3_0" slope="0.00"/>
        <vehicle id="1" x="158.27" y="24.15" angle="179.78" type="car@1" speed="5.06" pos="70.75" lane="e2_0" slope="0.00"/>
        <vehicle id="2" x="158.11" y="64.43" angle="179.78" type="car@2" speed="6.76" pos="30.47" lane="e2_0" slope="0.00"/>
        <vehicle id="3" x="161.33" y="60.30" angle="179.78" type="car@3" speed="7.15" pos="34.62" lane="e2_1" slope="0.00"/>
        <vehicle id="test" x="161.48" y="19.40" angle="179.78" type="ev@test" speed="5.50" pos="75.51" lane="e2_1" slope="0.00"/>
    </timestep>
    <timestep time="31.00">
        <vehicle id="0" x="111.22" y="-11.82" angle="238.51" type="car@0" speed="7.89" pos="54.30" lane="e3_0" slope="0.00"/>
        <vehicle id="1" x="158.28" y="21.27" angle="179.78" type="car@1" speed="2.87" pos="73.63" lane="e2_0" slope="0.00"/>
        <vehicle id="2" x="158.15" y="56.03" angle="179.78" type="car@2" speed="8.40" pos="38.87" lane="e2_0" slope="0.00"/>
        <vehicle id="3" x="161.37" y="50.44" angle="179.78" type="car@3" speed="9.86" pos="44.47" lane="e2_1" slope="0.00"/>
        <vehicle id="test" x="159.49" y="14.04" angle="197.51" type="ev@test" speed="6.03" pos="4.57" lane=":j3_0_1" slope="0.00"/>
    </timestep>
    <timestep time="32.00">
        <vehicle id="0" x="105.54" y="-15.30" angle="238.51" type="car@0" speed="6.66" pos="60.96" lane="e3_0" slope="0.00"/>
        <vehicle id="1" x="158.29" y="18.68" angle="179.78" type="car@1" speed="2.59" pos="76.22" lane="e2_0" slope="0.00"/>
        <vehicle id="2" x="158.18" y="48.27" angle="179.78" type="car@2" speed="7.76" pos="46.63" lane="e2_0" slope="0.00"/>
        <vehicle id="3" x="161.40" y="42.78" angle="179.78" type="car@3" speed="7.66" pos="52.13" lane="e2_1" slope="0.00"/>
        <vehicle id="test" x="154.31" y="10.83" angle="237.32" type="ev@test" speed="6.10" pos="5.73" lane="e3_1" slope="0.00"/>
    </timestep>
    <timestep time="33.00">
        <vehicle id="0" x="98.98" y="-19.31" angle="238.51" type="car@0" speed="7.69" pos="68.65" lane="e3_0" slope="0.00"/>
        <vehicle id="1" x="158.24" y="17.48" angle="180.33" type="car@1" speed="1.20" pos="0.44" lane=":j3_0_0" slope="0.00"/>
        <vehicle id="2" x="158.20" y="40.52" angle="179.78" type="car@2" speed="7.75" pos="54.38" lane="e2_0" slope="0.00"/>
        <vehicle id="3" x="161.43" y="34.24" angle="179.78" type="car@3" speed="8.54" pos="60.67" lane="e2_1" slope="0.00"/>
        <vehicle id="test" x="146.32" y="9.68" angle="238.51" type="ev@test" speed="7.41" pos="13.15" lane="e3_0" slope="0.00"/>
    </timestep>
    <timestep time="34.00">
        <vehicle id="0" x="94.24" y="-22.22" angle="238.51" type="car@0" speed="5.57" pos="74.22" lane="e3_0" slope="0.00"/>
        <vehicle id="1" x="156.66" y="16.02" angle="200.90" type="car@1" speed="2.22" pos="1.02" lane="e3_0" slope="0.00"/>
        <vehicle id="2" x="158.23" y="33.96" angle="179.78" type="car@2" speed="6.56" pos="60.94" lane="e2_0" slope="0.00"/>
        <vehicle id="3" x="161.45" y="27.91" angle="179.78" type="car@3" speed="6.34" pos="67.01" lane="e2_1" slope="0.00"/>
        <vehicle id="test" x="138.86" y="5.11" angle="238.51" type="ev@test" speed="8.75" pos="21.90" lane="e3_0" slope="0.00"/>
    </timestep>
    <timestep time="35.00">
        <vehicle id="0" x="87.96" y="-26.06" angle="238.51" type="car@0" speed="7.35" pos="81.57" lane="e3_0" slope="0.00"/>
        <vehicle id="1" x="153.01" y="13.78" angle="238.51" type="car@1" speed="4.28" pos="5.30" lane="e3_0" slope="0.00"/>
        <vehicle id="2" x="158.25" y="27.62" angle="179.78" type="car@2" speed="6.34" pos="67.28" lane="e2_0" slope="0.00"/>
        <vehicle id="3" x="161.48" y="20.47" angle="179.78" type="car@3" speed="7.43" pos="74.44" lane="e2_1" slope="0.00"/>
        <vehicle id="test" x="131.38" y="0.53" angle="238.51" type="ev@test" speed="8.77" pos="30.66" lane="e3_0" slope="0.00"/>
    </timestep>
    <timestep time="36.00">
        <vehicle id="0" x="83.57" y="-28.76" angle="238.51" type="car@0" speed="5.15" pos="86.73" lane="e3_0" slope="0.00"/>
        <vehicle id="1" x="148.61" y="11.09" angle="238.51" type="car@1" speed="5.16" pos="10.45" lane="e3_0" slope="0.00"/>
        <vehicle id="2" x="158.27" y="22.81" angle="179.78" type="car@2" speed="4.81" pos="72.09" lane="e2_0" slope="0.00"/>
        <vehicle id="3" x="160.79" y="15.38" angle="188.14" type="car@3" speed="5.23" pos="2.69" lane=":j3_0_1" slope="0.00"/>
        <vehicle id="test" x="124.73" y="-3.54" angle="238.51" type="ev@test" speed="7.80" pos="38.46" lane="e3_0" slope="0.00"/>
    </timestep>
    <timestep time="37.00">
        <vehicle id="0" x="79.86" y="-29.53" angle="254.60" type="car@0" speed="4.15" pos="0.53" lane="e4_0" slope="0.00"/>
        <vehicle id="1" x="143.87" y="8.19" angle="238.51" type="car@1" speed="5.56" pos="16.01" lane="e3_0" slope="0.00"/>
        <vehicle id="2" x="158.29" y="18.67" angle="179.78" type="car@2" speed="4.13" pos="76.23" lane="e2_0" slope="0.00"/>
        <vehicle id="3" x="157.25" y="12.63" angle="229.91" type="car@3" speed="4.53" pos="2.28" lane="e3_1" slope="0.00"/>
        <vehicle id="test" x="117.18" y="-8.16" angle="238.51" type="ev@test" speed="8.85" pos="47.31" lane="e3_0" slope="0.00"/>
    </timestep>
    <timestep time="38.00">
        <vehicle id="0" x="75.16" y="-26.89" angle="299.33" type="car@0" speed="5.39" pos="5.92" lane="e4_0" slope="0.00"/>
        <vehicle id="1" x="137.69" y="4.40" angle="238.51" type="car@1" speed="7.25" pos="23.26" lane="e3_0" slope="0.00"/>
        <vehicle id="2" x="156.95" y="16.19" angle="196.84" type="car@2" speed="3.08" pos="0.68" lane="e3_0" slope="0.00"/>
        <vehicle id="3" x="151.85" y="9.32" angle="238.51" type="car@3" speed="6.34" pos="8.62" lane="e3_1" slope="0.00"/>
        <vehicle id="test" x="108.73" y="-13.34" angle="238.51" type="ev@test" speed="9.91" pos="57.22" lane="e3_0" slope="0.00"/>
    </timestep>
    <timestep time="39.00">
        <vehicle id="0" x="67.69" y="-22.69" angle="299.33" type="car@0" speed="8.56" pos="14.48" lane="e4_0" slope="0.00"/>
        <vehicle id="1" x="130.17" y="-0.21" angle="238.51" type="car@1" speed="8.83" pos="32.09" lane="e3_0" slope="0.00"/>
        <vehicle id="2" x="154.25" y="14.54" angle="233.86" type="car@2" speed="3.16" pos="3.84" lane="e3_0" slope="0.00"/>
        <vehicle id="3" x="145.47" y="5.41" angle="238.51" type="car@3" speed="7.48" pos="16.10" lane="e3_1" slope="0.00"/>
        <vehicle id="test" x="101.48" y="-17.79" angle="238.51" type="ev@test" speed="8.51" pos="65.73" lane="e3_0" slope="0.00"/>
    </timestep>
    <timestep time="40.00">
        <vehicle id="0" x="60.49" y="-18.64" angle="299.33" type="car@0" speed="8.27" pos="22.75" lane="e4_0" slope="0.00"/>
        <vehicle id="1" x="123.81" y="-4.10" angle="238.51" type="car@1" speed="7.45" pos="39.54" lane="e3_0" slope="0.00"/>
        <vehicle id="2" x="151.23" y="12.69" angle="238.51" type="car@2" speed="3.55" pos="7.39" lane="e3_0" slope="0.00"/>
        <vehicle id="3" x="138.57" y="1.18" angle="238.51" type="car@3" speed="8.10" pos="24.20" lane="e3_1" slope="0.00"/>
        <vehicle id="test" x="94.38" y="-22.13" angle="238.51" type="ev@test" speed="8.32" pos="74.05" lane="e3_0" slope="0.00"/>
    </timestep>
    <timestep time="41.00">
        <vehicle id="0" x="52.16" y="-13.97" angle="299.33" type="car@0" speed="9.55" pos="32.30" lane="e4_0" slope="0.00"/>
        <vehicle id="1" x="117.33" y="-8.07" angle="238.51" type="car@1" speed="7.60" pos="47.14" lane="e3_0" slope="0.00"/>
        <vehicle id="2" x="145.35" y="9.09" angle="238.51" type="car@2" speed="6.89" pos="14.28" lane="e3_0" slope="0.00"/>
        <vehicle id="3" x="131.00" y="-3.45" angle="238.51" type="car@3" speed="8.87" pos="33.07" lane="e3_1" slope="0.00"/>
        <vehicle id="test" x="88.37" y="-25.82" angle="238.51" type="ev@test" speed="7.05" pos="81.10" lane="e3_0" slope="0.00"/>
    </timestep>
    <timestep time="42.00">
        <vehicle id="0" x="45.75" y="-10.37" angle="299.33" type="car@0" speed="7.35" pos="39.65" lane="e4_0" slope="0.00"/>
        <vehicle id="1" x="111.64" y="-11.56" angle="238.51" type="car@1" speed="6.68" pos="53.81" lane="e3_0" slope="0.00"/>
        <vehicle id="2" x="138.01" y="4.59" angle="238.51" type="car@2" speed="8.60" pos="22.89" lane="e3_0" slope="0.00"/>
        <vehicle id="3" x="122.83" y="-8.46" angle="238.51" type="car@3" speed="9.59" pos="42.65" lane="e3_1" slope="0.00"/>
        <vehicle id="test" x="83.18" y="-28.99" angle="238.51" type="ev@test" speed="6.08" pos="87.18" lane="e3_0" slope="0.00"/>
    </timestep>
    <timestep time="43.00">
        <vehicle id="0" x="39.81" y="-7.03" angle="299.33" type="car@0" speed="6.81" pos="46.46" lane="e4_0" slope="0.00"/>
        <vehicle id="1" x="103.44" y="-16.59" angle="238.51" type="car@1" speed="9.62" pos="63.43" lane="e3_0" slope="0.00"/>
        <vehicle id="2" x="129.82" y="-0.42" angle="238.51" type="car@2" speed="9.61" pos="32.49" lane="e3_0" slope="0.00"/>
        <vehicle id="3" x="116.53" y="-12.32" angle="238.51" type="car@3" speed="7.39" pos="50.04" lane="e3_1" slope="0.00"/>
        <vehicle id="test" x="79.70" y="-29.44" angle="251.33" type="ev@test" speed="3.88" pos="0.71" lane="e4_0" slope="0.00"/>
    </timestep>
    <timestep time="44.00">
        <vehicle id="0" x="33.68" y="-3.58" angle="299.33" type="car@0" speed="7.04" pos="53.49" lane="e4_0" slope="0.00"/>
        <vehicle id="1" x="94.97" y="-21.77" angle="238.51" type="car@1" speed="9.93" pos="73.36" lane="e3_0" slope="0.00"/>
        <vehicle id="2" x="121.33" y="-5.62" angle="238.51" type="car@2" speed="9.96" pos="42.45" lane="e3_0" slope="0.00"/>
        <vehicle id="3" x="108.05" y="-17.52" angle="238.51" type="car@3" speed="9.95" pos="59.99" lane="e3_1" slope="0.00"/>
        <vehicle id="test" x="73.57" y="-26.00" angle="299.33" type="ev@test" speed="7.03" pos="7.74" lane="e4_0" slope="0.00"/>
    </timestep>
    <timestep time="45.00">
        <vehicle id="0" x="26.76" y="0.31" angle="299.33" type="car@0" speed="7.94" pos="61.44" lane="e4_0" slope="0.00"/>
        <vehicle id="1" x="88.37" y="-25.81" angle="238.51" type="car@1" speed="7.73" pos="81.09" lane="e3_0" slope="0.00"/>
        <vehicle id="2" x="113.26" y="-10.57" angle="238.51" type="car@2" speed="9.46" pos="51.91" lane="e3_0" slope="0.00"/>
        <vehicle id="3" x="100.42" y="-22.19" angle="238.51" type="car@3" speed="8.94" pos="68.93" lane="e3_1" slope="0.00"/>
        <vehicle id="test" x="64.86" y="-21.10" angle="299.33" type="ev@test" speed="9.99" pos="17.73" lane="e4_0" slope="0.00"/>
    </timestep>
    <timestep time="46.00">
        <vehicle id="0" x="19.00" y="4.67" angle="299.33" type="car@0" speed="8.90" pos="70.34" lane="e4_0" slope="0.00"/>
        <vehicle id="1" x="83.66" y="-28.70" angle="238.51" type="car@1" speed="5.53" pos="86.62" lane="e3_0" slope="0.00"/>
        <vehicle id="2" x="105.43" y="-15.37" angle="238.51" type="car@2" speed="9.19" pos="61.10" lane="e3_0" slope="0.00"/>
        <vehicle id="3" x="94.68" y="-25.71" angle="238.51" type="car@3" speed="6.74" pos="75.67" lane="e3_1" slope="0.00"/>
        <vehicle id="test" x="58.07" y="-17.29" angle="299.33" type="ev@test" speed="7.79" pos="25.52" lane="e4_0" slope="0.00"/>
    </timestep>
    <timestep time="47.00">
        <vehicle id="0" x="12.58" y="8.27" angle="299.33" type="car@0" speed="7.36" pos="77.70" lane="e4_0" slope="0.00"/>
        <vehicle id="1" x="80.60" y="-29.91" angle="245.22" type="car@1" speed="3.42" pos="1.39" lane=":j4_0_0" slope="0.00"/>
        <vehicle id="2" x="99.46" y="-19.02" angle="238.51" type="car@2" speed="6.99" pos="68.09" lane="e3_0" slope="0.00"/>
        <vehicle id="3" x="88.99" y="-29.19" angle="238.51" type="car@3" speed="6.67" pos="82.34" lane="e3_1" slope="0.00"/>
        <vehicle id="test" x="51.45" y="-13.57" angle="299.33" type="ev@test" speed="7.60" pos="33.12" lane="e4_0" slope="0.00"/>
    </timestep>
    <timestep time="48.00">
        <vehicle id="0" x="5.82" y="12.07" angle="299.33" type="car@0" speed="7.75" pos="85.45" lane="e4_0" slope="0.00"/>
        <vehicle id="1" x="77.52" y="-28.22" angle="288.41" type="car@1" speed="3.51" pos="3.21" lane="e4_0" slope="0.00"/>
        <vehicle id="2" x="92.57" y="-23.24" angle="238.51" type="car@2" speed="8.09" pos="76.18" lane="e3_0" slope="0.00"/>
        <vehicle id="3" x="84.21" y="-32.12" angle="238.51" type="car@3" speed="5.60" pos="87.94" lane="e3_1" slope="0.00"/>
        <vehicle id="test" x="45.62" y="-10.29" angle="299.33" type="ev@test" speed="6.68" pos="39.80" lane="e4_0" slope="0.00"/>
    </timestep>
    <timestep time="49.00">
        <vehicle id="0" x="0.98" y="14.79" angle="299.33" type="car@0" speed="5.55" pos="91.00" lane="e4_0" slope="0.00"/>
        <vehicle id="1" x="71.94" y="-25.08" angle="299.33" type="car@1" speed="6.40" pos="9.61" lane="e4_0" slope="0.00"/>