<?xml version="1.0" encoding="UTF-8"?>

<!-- generated on 2024-08-09 16:21:21 by Eclipse SUMO GUI Version 1.20.0
<configuration xmlns:xsi="http://www.w3.org/2001/XMLSchema-instance" xsi:noNamespaceSchemaLocation="http://sumo.dlr.de/xsd/sumoConfiguration.xsd">

    <input>
        <net-file value="test.net.xml"/>
        <route-files value="test.rou.xml"/>
    </input>

    <output>
        <fcd-output value="FCD.xml"/>
        <edgedata-output value="edgeOutput.xml"/>
        <lanedata-output value="laneOutput.xml"/>
    </output>

    <traci_server>
        <remote-port value="62553"/>
    </traci_server>

</configuration>
-->

<fcd-export xmlns:xsi="http://www.w3.org/2001/XMLSchema-instance" xsi:noNamespaceSchemaLocation="http://sumo.dlr.de/xsd/fcd_file.xsd">
    <timestep time="0.00">
        <vehicle id="0" x="85.79" y="131.01" angle="115.93" type="car" speed="0.00" pos="5.10" lane="e1_0" slope="0.00"/>
    </timestep>
    <timestep time="1.00">
        <vehicle id="0" x="88.26" y="129.81" angle="115.93" type="car@0" speed="2.75" pos="7.85" lane="e1_0" slope="0.00"/>
    </timestep>
    <timestep time="2.00">
        <vehicle id="0" x="93.55" y="127.24" angle="115.93" type="car@0" speed="5.88" pos="13.73" lane="e1_0" slope="0.00"/>
    </timestep>
    <timestep time="3.00">
        <vehicle id="0" x="99.87" y="124.16" angle="115.93" type="car@0" speed="7.03" pos="20.76" lane="e1_0" slope="0.00"/>
        <vehicle id="1" x="85.79" y="131.01" angle="115.93" type="car" speed="0.00" pos="5.10" lane="e1_0" slope="0.00"/>
    </timestep>
    <timestep time="4.00">
        <vehicle id="0" x="106.91" y="120.74" angle="115.93" type="car@0" speed="7.83" pos="28.59" lane="e1_0" slope="0.00"/>
        <vehicle id="1" x="86.72" y="130.55" angle="115.93" type="car@1" speed="1.04" pos="6.14" lane="e1_0" slope="0.00"/>
    </timestep>
    <timestep time="5.00">
        <vehicle id="0" x="115.10" y="116.76" angle="115.93" type="car@0" speed="9.11" pos="37.69" lane="e1_0" slope="0.00"/>
        <vehicle id="1" x="88.10" y="129.88" angle="115.93" type="car@1" speed="1.53" pos="7.68" lane="e1_0" slope="0.00"/>
    </timestep>
    <timestep time="6.00">
        <vehicle id="0" x="123.16" y="112.84" angle="115.93" type="car@0" speed="8.96" pos="46.66" lane="e1_0" slope="0.00"/>
        <vehicle id="1" x="89.93" y="128.99" angle="115.93" type="car@1" speed="2.03" pos="9.71" lane="e1_0" slope="0.00"/>
    </timestep>
    <timestep time="7.00">
        <vehicle id="0" x="131.18" y="108.94" angle="115.93" type="car@0" speed="8.91" pos="55.57" lane="e1_0" slope="0.00"/>
        <vehicle id="1" x="94.69" y="126.68" angle="115.93" type="car@1" speed="5.29" pos="15.00" lane="e1_0" slope="0.00"/>
        <vehicle id="test" x="87.59" y="130.14" angle="115.93" type="ev" speed="0.00" pos="7.10" lane="e1_0" slope="0.00"/>
    </timestep>
    <timestep time="8.00">
        <vehicle id="0" x="138.22" y="105.52" angle="115.93" type="car@0" speed="7.84" pos="63.40" lane="e1_0" slope="0.00"/>
        <vehicle id="1" x="100.11" y="124.05" angle="115.93" type="car@1" speed="6.02" pos="21.02" lane="e1_0" slope="0.00"/>
        <vehicle id="test" x="87.97" y="129.95" angle="115.93" type="ev@test" speed="0.43" pos="7.53" lane="e1_0" slope="0.00"/>
    </timestep>
    <timestep time="9.00">
        <vehicle id="0" x="146.30" y="101.59" angle="115.93" type="car@0" speed="8.97" pos="72.38" lane="e1_0" slope="0.00"/>
        <vehicle id="1" x="106.58" y="120.90" angle="115.93" type="car@1" speed="7.20" pos="28.22" lane="e1_0" slope="0.00"/>
        <vehicle id="test" x="91.41" y="128.28" angle="115.93" type="ev@test" speed="3.82" pos="11.35" lane="e1_0" slope="0.00"/>
    </timestep>
    <timestep time="10.00">
        <vehicle id="0" x="152.39" y="98.63" angle="115.93" type="car@0" speed="6.77" pos="79.15" lane="e1_0" slope="0.00"/>
        <vehicle id="1" x="113.00" y="117.78" angle="115.93" type="car@1" speed="7.14" pos="35.36" lane="e1_0" slope="0.00"/>
        <vehicle id="2" x="85.79" y="131.01" angle="115.93" type="car" speed="0.00" pos="5.10" lane="e1_0" slope="0.00"/>
        <vehicle id="test" x="96.44" y="125.83" angle="115.93" type="ev@test" speed="5.60" pos="16.95" lane="e1_0" slope="0.00"/>
    </timestep>
    <timestep time="11.00">
        <vehicle id="0" x="156.50" y="96.63" angle="115.93" type="car@0" speed="4.57" pos="83.73" lane="e1_0" slope="0.00"/>
        <vehicle id="1" x="121.97" y="113.42" angle="115.93" type="car@1" speed="9.97" pos="45.33" lane="e1_0" slope="0.00"/>
        <vehicle id="2" x="87.85" y="130.01" angle="115.93" type="car@2" speed="2.30" pos="7.40" lane="e1_0" slope="0.00"/>
        <vehicle id="test" x="102.32" y="122.97" angle="115.93" type="ev@test" speed="6.54" pos="23.49" lane="e1_0" slope="0.00"/>
    </timestep>
    <timestep time="12.00">
        <vehicle id="0" x="157.99" y="94.98" angle="126.04" type="car@0" speed="2.37" pos="1.71" lane=":j2_0_0" slope="0.00"/>
        <vehicle id="1" x="128.95" y="110.02" angle="115.93" type="car@1" speed="7.77" pos="53.09" lane="e1_0" slope="0.00"/>
        <vehicle id="2" x="90.33" y="128.80" angle="115.93" type="car@2" speed="2.76" pos="10.15" lane="e1_0" slope="0.00"/>
        <vehicle id="test" x="110.54" y="118.98" angle="115.93" type="ev@test" speed="9.13" pos="32.62" lane="e1_0" slope="0.00"/>
    </timestep>
    <timestep time="13.00">
        <vehicle id="0" x="158.01" y="91.45" angle="171.48" type="car@0" speed="3.53" pos="3.45" lane="e2_0" slope="0.00"/>
        <vehicle id="1" x="135.27" y="106.95" angle="115.93" type="car@1" speed="7.03" pos="60.12" lane="e1_0" slope="0.00"/>
        <vehicle id="2" x="93.94" y="127.05" angle="115.93" type="car@2" speed="4.01" pos="14.16" lane="e1_0" slope="0.00"/>
        <vehicle id="3" x="85.79" y="131.01" angle="115.93" type="car" speed="0.00" pos="5.10" lane="e1_0" slope="0.00"/>
        <vehicle id="test" x="119.60" y="118.13" angle="115.93" type="ev@test" speed="8.52" pos="41.14" lane="e1_1" slope="0.00"/>
    </timestep>
    <timestep time="14.00">
        <vehicle id="0" x="158.04" y="84.67" angle="179.78" type="car@0" speed="6.78" pos="10.23" lane="e2_0" slope="0.00"/>
        <vehicle id="1" x="140.77" y="104.28" angle="115.93" type="car@1" speed="6.12" pos="66.24" lane="e1_0" slope="0.00"/>
        <vehicle id="2" x="100.43" y="123.89" angle="115.93" type="car@2" speed="7.22" pos="21.39" lane="e1_0" slope="0.00"/>
        <vehicle id="3" x="87.27" y="130.29" angle="115.93" type="car@3" speed="1.65" pos="6.75" lane="e1_0" slope="0.00"/>
        <vehicle id="test" x="125.58" y="115.22" angle="115.93" type="ev@test" speed="6.65" pos="47.79" lane="e1_1" slope="0.00"/>
    </timestep>
    <timestep time="15.00">
        <vehicle id="0" x="158.07" y="75.97" angle="179.78" type="car@0" speed="8.70" pos="18.93" lane="e2_0" slope="0.00"/>
        <vehicle id="1" x="146.49" y="101.50" angle="115.93" type="car@1" speed="6.36" pos="72.60" lane="e1_0" slope="0.00"/>
        <vehicle id="2" x="106.83" y="120.78" angle="115.93" type="car@2" speed="7.11" pos="28.50" lane="e1_0" slope="0.00"/>
        <vehicle id="3" x="90.38" y="128.78" angle="115.93" type="car@3" speed="3.46" pos="10.21" lane="e1_0" slope="0.00"/>
        <vehicle id="test" x="131.93" y="112.13" angle="115.93" type="ev@test" speed="7.06" pos="54.85" lane="e1_1" slope="0.00"/>
    </timestep>
    <timestep time="16.00">
        <vehicle id="0" x="158.10" y="69.37" angle="179.78" type="car@0" speed="6.60" pos="25.53" lane="e2_0" slope="0.00"/>
        <vehicle id="1" x="150.91" y="99.35" angle="115.93" type="car@1" speed="4.91" pos="77.51" lane="e1_0" slope="0.00"/>
        <vehicle id="2" x="114.67" y="116.97" angle="115.93" type="car@2" speed="8.71" pos="37.21" lane="e1_0" slope="0.00"/>
        <vehicle id="3" x="94.62" y="126.71" angle="115.93" type="car@3" speed="4.72" pos="14.92" lane="e1_0" slope="0.00"/>
        <vehicle id="test" x="138.16" y="109.10" angle="115.93" type="ev@test" speed="6.93" pos="61.77" lane="e1_1" slope="0.00"/>
    </timestep>
    <timestep time="17.00">
        <vehicle id="0" x="158.12" y="61.98" angle="179.78" type="car@0" speed="7.38" pos="32.92" lane="e2_0" slope="0.00"/>
        <vehicle id="1" x="154.67" y="97.52" angle="115.93" type="car@1" speed="4.18" pos="81.69" lane="e1_0" slope="0.00"/>
        <vehicle id="2" x="121.56" y="113.62" angle="115.93" type="car@2" speed="7.66" pos="44.87" lane="e1_0" slope="0.00"/>
        <vehicle id="3" x="101.17" y="123.53" angle="115.93" type="car@3" speed="7.28" pos="22.21" lane="e1_0" slope="0.00"/>
        <vehicle id="test" x="147.03" y="104.79" angle="115.93" type="ev@test" speed="9.87" pos="71.64" lane="e1_1" slope="0.00"/>
    </timestep>
    <timestep time="18.00">
        <vehicle id="0" x="158.15" y="55.30" angle="179.78" type="car@0" speed="6.68" pos="39.60" lane="e2_0" slope="0.00"/>
        <vehicle id="1" x="156.83" y="96.47" angle="115.93" type="car@1" speed="2.40" pos="84.09" lane="e1_0" slope="0.00"/>
        <vehicle id="2" x="128.99" y="110.01" angle="115.93" type="car@2" speed="8.26" pos="53.13" lane="e1_0" slope="0.00"/>
        <vehicle id="3" x="109.30" y="119.58" angle="115.93" type="car@3" speed="9.04" pos="31.24" lane="e1_0" slope="0.00"/>
        <vehicle id="test" x="153.93" y="101.43" angle="115.93" type="ev@test" speed="7.67" pos="79.31" lane="e1_1" slope="0.00"/>
    </timestep>
    <timestep time="19.00">
        <vehicle id="0" x="158.18" y="46.63" angle="179.78" type="car@0" speed="8.67" pos="48.27" lane="e2_0" slope="0.00"/>
        <vehicle id="1" x="157.08" y="96.35" angle="115.93" type="car@1" speed="0.27" pos="84.36" lane="e1_0" slope="0.00"/>
        <vehicle id="2" x="134.64" y="107.26" angle="115.93" type="car@2" speed="6.29" pos="59.42" lane="e1_0" slope="0.00"/>
        <vehicle id="3" x="115.45" y="116.59" angle="115.93" type="car@3" speed="6.84" pos="38.08" lane="e1_0" slope="0.00"/>
        <vehicle id="test" x="159.12" y="98.81" angle="116.65" type="ev@test" speed="5.82" pos="0.73" lane=":j2_0_1" slope="0.00"/>
    </timestep>
    <timestep time="20.00">
        <vehicle id="0" x="158.21" y="37.90" angle="179.78" type="car@0" speed="8.74" pos="57.00" lane="e2_0" slope="0.00"/>
        <vehicle id="1" x="158.00" y="93.83" angle="140.62" type="car@1" speed="2.89" pos="1.07" lane="e2_0" slope="0.00"/>
        <vehicle id="2" x="141.19" y="104.07" angle="115.93" type="car@2" speed="7.28" pos="66.70" lane="e1_0" slope="0.00"/>
        <vehicle id="3" x="124.42" y="115.78" angle="115.93" type="car@3" speed="8.41" pos="46.50" lane="e1_1" slope="0.00"/>
        <vehicle id="test" x="161.20" y="94.78" angle="141.55" type="ev@test" speed="4.78" pos="0.14" lane="e2_1" slope="0.00"/>
    </timestep>
    <timestep time="21.00">
        <vehicle id="0" x="158.24" y="31.36" angle="179.78" type="car@0" speed="6.54" pos="63.54" lane="e2_0" slope="0.00"/>
        <vehicle id="1" x="158.02" y="89.72" angle="179.78" type="car@1" speed="4.11" pos="5.18" lane="e2_0" slope="0.00"/>
        <vehicle id="2" x="147.38" y="101.07" angle="115.93" type="car@2" speed="6.88" pos="73.58" lane="e1_0" slope="0.00"/>
        <vehicle id="3" x="133.14" y="111.54" angle="115.93" type="car@3" speed="9.70" pos="56.20" lane="e1_1" slope="0.00"/>
        <vehicle id="test" x="161.23" y="87.00" angle="179.78" type="ev@test" speed="7.78" pos="7.92" lane="e2_1" slope="0.00"/>
    </timestep>
    <timestep time="22.00">
        <vehicle id="0" x="158.26" y="24.81" angle="179.78" type="car@0" speed="6.55" pos="70.09" lane="e2_0" slope="0.00"/>
        <vehicle id="1" x="158.04" y="85.56" angle="179.78" type="car@1" speed="4.16" pos="9.34" lane="e2_0" slope="0.00"/>
        <vehicle id="2" x="151.58" y="99.02" angle="115.93" type="car@2" speed="4.68" pos="78.26" lane="e1_0" slope="0.00"/>
        <vehicle id="3" x="141.72" y="107.37" angle="115.93" type="car@3" speed="9.54" pos="65.74" lane="e1_1" slope="0.00"/>
        <vehicle id="test" x="161.26" y="80.07" angle="179.78" type="ev@test" speed="6.92" pos="14.84" lane="e2_1" slope="0.00"/>
    </timestep>
    <timestep time="23.00">
        <vehicle id="0" x="158.28" y="20.46" angle="179.78" type="car@0" speed="4.35" pos="74.44" lane="e2_0" slope="0.00"/>
        <vehicle id="1" x="158.05" y="80.99" angle="179.78" type="car@1" speed="4.57" pos="13.91" lane="e2_0" slope="0.00"/>
        <vehicle id="2" x="155.21" y="97.26" angle="115.93" type="car@2" speed="4.04" pos="82.29" lane="e1_0" slope="0.00"/>
        <vehicle id="3" x="148.32" y="104.16" angle="115.93" type="car@3" speed="7.34" pos="73.07" lane="e1_1" slope="0.00"/>
        <vehicle id="test" x="161.29" y="70.53" angle="179.78" type="ev@test" speed="9.54" pos="24.39" lane="e2_1" slope="0.00"/>
    </timestep>
    <timestep time="24.00">
        <vehicle id="0" x="158.29" y="18.30" angle="179.78" type="car@0" speed="2.15" pos="76.60" lane="e2_0" slope="0.00"/>
        <vehicle id="1" x="158.08" y="74.59" angle="179.78" type="car@1" speed="6.40" pos="20.31" lane="e2_0" slope="0.00"/>
        <vehicle id="2" x="157.94" y="95.33" angle="122.25" type="car@2" speed="3.45" pos="1.36" lane=":j2_0_0" slope="0.00"/>
        <vehicle id="3" x="154.78" y="101.02" angle="115.93" type="car@3" speed="7.18" pos="80.25" lane="e1_1" slope="0.00"/>
        <vehicle id="test" x="161.32" y="61.81" angle="179.78" type="ev@test" speed="8.72" pos="33.11" lane="e2_1" slope="0.00"/>
    </timestep>
    <timestep time="25.00">
        <vehicle id="0" x="155.64" y="15.39" angle="215.73" type="car@0" speed="4.24" pos="2.21" lane="e3_0" slope="0.00"/>
        <vehicle id="1" x="158.11" y="66.95" angle="179.78" type="car@1" speed="7.64" pos="27.95" lane="e2_0" slope="0.00"/>
        <vehicle id="2" x="158.00" y="94.08" angle="137.24" type="car@2" speed="1.25" pos="0.82" lane="e2_0" slope="0.00"/>
        <vehicle id="3" x="159.46" y="98.59" angle="117.50" type="car@3" speed="5.28" pos="1.15" lane=":j2_0_1" slope="0.00"/>
        <vehicle id="test" x="161.35" y="53.98" angle="179.78" type="ev@test" speed="7.82" pos="40.93" lane="e2_1" slope="0.00"/>
    </timestep>
    <timestep time="26.00">
        <vehicle id="0" x="149.93" y="11.89" angle="238.51" type="car@0" speed="6.70" pos="8.91" lane="e3_0" slope="0.00"/>
        <vehicle id="1" x="158.14" y="58.08" angle="179.78" type="car@1" speed="8.87" pos="36.82" lane="e2_0" slope="0.00"/>
        <vehicle id="2" x="158.01" y="91.59" angle="170.04" type="car@2" speed="2.50" pos="3.31" lane="e2_0" slope="0.00"/>
        <vehicle id="3" x="161.20" y="94.44" angle="155.20" type="car@3" speed="4.70" pos="0.48" lane="e2_1" slope="0.00"/>
        <vehicle id="test" x="161.39" y="44.10" angle="179.78" type="ev@test" speed="9.88" pos="50.81" lane="e2_1" slope="0.00"/>
    </timestep>
    <timestep time="27.00">
        <vehicle id="0" x="141.60" y="6.79" angle="238.51" type="car@0" speed="9.77" pos="18.68" lane="e3_0" slope="0.00"/>
        <vehicle id="1" x="158.17" y="49.55" angle="179.78" type="car@1" speed="8.53" pos="45.35" lane="e2_0" slope="0.00"/>
        <vehicle id="2" x="158.02" y="88.37" angle="179.78" type="car@2" speed="3.22" pos="6.53" lane="e2_0" slope="0.00"/>
        <vehicle id="3" x="161.22" y="88.96" angle="179.78" type="car@3" speed="5.48" pos="5.96" lane="e2_1" slope="0.00"/>
        <vehicle id="test" x="161.42" y="35.96" angle="179.78" type="ev@test" speed="8.14" pos="58.95" lane="e2_1" slope="0.00"/>
    </timestep>
    <timestep time="28.00">
        <vehicle id="0" x="133.67" y="1.93" angle="238.51" type="car@0" speed="9.30" pos="27.98" lane="e3_0" slope="0.00"/>
        <vehicle id="1" x="158.21" y="40.09" angle="179.78" type="car@1" speed="9.46" pos="54.81" lane="e2_0" slope="0.00"/>
        <vehicle id="2" x="158.04" y="83.96" angle="179.78" type="car@2" speed="4.41" pos="10.94" lane="e2_0" slope="0.00"/>
        <vehicle id="3" x="161.25" y="80.86" angle="179.78" type="car@3" speed="8.10" pos="14.06" lane="e2_1" slope="0.00"/>
        <vehicle id="test" x="161.46" y="26.37" angle="179.78" type="ev@test" speed="9.58" pos="68.54" lane="e2_1" slope="0.00"/>
    </timestep>
    <timestep time="29.00">
        <vehicle id="0" x="125.86" y="-2.85" angle="238.51" type="car@0" speed="9.16" pos="37.14" lane="e3_0" slope="0.00"/>
        <vehicle id="1" x="158.24" y="32.34" angle="179.78" type="car@1" speed="7.75" pos="62.56" lane="e2_0" slope="0.00"/>
        <vehicle id="2" x="158.07" y="76.75" angle="179.78" type="car@2" speed="7.21" pos="18.15" lane="e2_0" slope="0.00"/>
        <vehicle id="3" x="161.28" y="72.51" angle="179.78" type="car@3" speed="8.35" pos="22.41" lane="e2_1" slope="0.00"/>
        <vehicle id="test" x="161.49" y="18.58" angle="179.78" type="ev@test" speed="7.80" pos="76.33" lane="e2_1" slope="0.00"/>
    </timestep>
    <timestep time="30.00">
        <vehicle id="0" x="117.95" y="-7.70" angle="238.51" type="car@0" speed="9.28" pos="46.42" lane="e3_0" slope="0.00"/>
        <vehicle id="1" x="158.26" y="26.58" angle="179.78" type="car@1" speed="5.75" pos="68.32" lane="e2_0" slope="0.00"/>
        <vehicle id="2" x="158.09" y="69.99" angle="179.78" type="car@2" speed="6.76" pos="24.91" lane="e2_0" slope="0.00"/>
        <vehicle id="3" x="161.32" y="62.86" angle="179.78" type="car@3" speed="9.65" pos="32.06" lane="e2_1" slope="0.00"/>
        <vehicle id="test" x="159.18" y="13.81" angle="200.45" type="ev@test" speed="5.60" pos="0.02" lane="e3_1" slope="0.00"/>
    </timestep>
    <timestep time="31.00">
        <vehicle id="0" x="111.22" y="-11.82" angle="238.51" type="car@0" speed="7.89" pos="54.30" lane="e3_0" slope="0.00"/>
        <vehicle id="1" x="158.27" y="23.03" angle="179.78" type="car@1" speed="3.55" pos="71.87" lane="e2_0" slope="0.00"/>
        <vehicle id="2" x="158.13" y="61.60" angle="179.78" type="car@2" speed="8.40" pos="33.30" lane="e2_0" slope="0.00"/>
        <vehicle id="3" x="161.36" y="53.00" angle="179.78" type="car@3" speed="9.86" pos="41.91" lane="e2_1" slope="0.00"/>
        <vehicle id="test" x="153.29" y="10.20" angle="238.45" type="ev@test" speed="6.91" pos="6.94" lane="e3_1" slope="0.00"/>
    </timestep>
    <timestep time="32.00">
        <vehicle id="0" x="105.54" y="-15.30" angle="238.51" type="car@0" speed="6.66" pos="60.96" lane="e3_0" slope="0.00"/>
        <vehicle id="1" x="158.29" y="19.11" angle="179.78" type="car@1" speed="3.92" pos="75.79" lane="e2_0" slope="0.00"/>
        <vehicle id="2" x="158.15" y="53.84" angle="179.78" type="car@2" speed="7.76" pos="41.06" lane="e2_0" slope="0.00"/>
        <vehicle id="3" x="161.39" y="45.34" angle="179.78" type="car@3" speed="7.66" pos="49.57" lane="e2_1" slope="0.00"/>
        <vehicle id="test" x="146.20" y="5.86" angle="238.51" type="ev@test" speed="8.31" pos="15.24" lane="e3_1" slope="0.00"/>
    </timestep>
    <timestep time="33.00">
        <vehicle id="0" x="98.98" y="-19.31" angle="238.51" type="car@0" speed="7.69" pos="68.65" lane="e3_0" slope="0.00"/>
        <vehicle id="1" x="158.21" y="17.39" angle="180.76" type="car@1" speed="1.72" pos="0.54" lane=":j3_0_0" slope="0.00"/>
        <vehicle id="2" x="158.18" y="46.08" angle="179.78" type="car@2" speed="7.75" pos="48.82" lane="e2_0" slope="0.00"/>
        <vehicle id="3" x="161.42" y="36.80" angle="179.78" type="car@3" speed="8.54" pos="58.11" lane="e2_1" slope="0.00"/>
        <vehicle id="test" x="139.68" y="1.86" angle="238.51" type="ev@test" speed="7.64" pos="22.89" lane="e3_1" slope="0.00"/>
    </timestep>
    <timestep time="34.00">
        <vehicle id="0" x="94.24" y="-22.22" angle="238.51" type="car@0" speed="5.57" pos="74.22" lane="e3_0" slope="0.00"/>
        <vehicle id="1" x="156.58" y="15.97" angle="202.09" type="car@1" speed="2.22" pos="1.12" lane="e3_0" slope="0.00"/>
        <vehicle id="2" x="158.21" y="39.77" angle="179.78" type="car@2" speed="6.31" pos="55.13" lane="e2_0" slope="0.00"/>
        <vehicle id="3" x="161.45" y="29.77" angle="179.78" type="car@3" speed="7.03" pos="65.14" lane="e2_1" slope="0.00"/>
        <vehicle id="test" x="132.78" y="-2.37" angle="238.51" type="ev@test" speed="8.10" pos="30.98" lane="e3_1" slope="0.00"/>
    </timestep>
    <timestep time="35.00">
        <vehicle id="0" x="88.21" y="-25.91" angle="238.51" type="car@0" speed="7.06" pos="81.28" lane="e3_0" slope="0.00"/>
        <vehicle id="1" x="152.52" y="13.48" angle="238.51" type="car@1" speed="4.76" pos="5.88" lane="e3_0" slope="0.00"/>
        <vehicle id="2" x="158.23" y="33.36" angle="179.78" type="car@2" speed="6.41" pos="61.54" lane="e2_0" slope="0.00"/>
        <vehicle id="3" x="161.47" y="22.34" angle="179.78" type="car@3" speed="7.43" pos="72.57" lane="e2_1" slope="0.00"/>
        <vehicle id="test" x="125.22" y="-7.00" angle="238.51" type="ev@test" speed="8.87" pos="39.86" lane="e3_1" slope="0.00"/>
    </timestep>
    <timestep time="36.00">
        <vehicle id="0" x="83.76" y="-28.64" angle="238.51" type="car@0" speed="5.22" pos="86.50" lane="e3_0" slope="0.00"/>
        <vehicle id="1" x="146.71" y="9.92" angle="238.51" type="car@1" speed="6.82" pos="12.69" lane="e3_0" slope="0.00"/>
        <vehicle id="2" x="158.26" y="26.59" angle="179.78" type="car@2" speed="6.77" pos="68.31" lane="e2_0" slope="0.00"/>
        <vehicle id="3" x="161.40" y="17.12" angle="180.85" type="car@3" speed="5.23" pos="0.82" lane=":j3_0_1" slope="0.00"/>
        <vehicle id="test" x="117.04" y="-12.01" angle="238.51" type="ev@test" speed="9.59" pos="49.44" lane="e3_1" slope="0.00"/>
    </timestep>
    <timestep time="37.00">
        <vehicle id="0" x="81.11" y="-30.01" angle="241.01" type="car@0" speed="3.02" pos="0.87" lane=":j4_0_0" slope="0.00"/>
        <vehicle id="1" x="140.06" y="5.85" angle="238.51" type="car@1" speed="7.80" pos="20.49" lane="e3_0" slope="0.00"/>
        <vehicle id="2" x="158.28" y="20.78" angle="179.78" type="car@2" speed="5.81" pos="74.12" lane="e2_0" slope="0.00"/>
        <vehicle id="3" x="157.40" y="12.72" angle="228.64" type="car@3" speed="6.22" pos="2.11" lane="e3_1" slope="0.00"/>
        <vehicle id="test" x="109.07" y="-13.14" angle="238.51" type="ev@test" speed="7.39" pos="56.83" lane="e3_0" slope="0.00"/>
    </timestep>
    <timestep time="38.00">
        <vehicle id="0" x="77.56" y="-28.24" angle="287.97" type="car@0" speed="4.00" pos="3.17" lane="e4_0" slope="0.00"/>
        <vehicle id="1" x="131.62" y="0.68" angle="238.51" type="car@1" speed="9.90" pos="30.38" lane="e3_0" slope="0.00"/>
        <vehicle id="2" x="158.13" y="17.20" angle="181.68" type="car@2" speed="3.61" pos="0.75" lane=":j3_0_0" slope="0.00"/>
        <vehicle id="3" x="149.15" y="7.66" angle="238.51" type="car@3" speed="9.67" pos="11.78" lane="e3_1" slope="0.00"/>
        <vehicle id="test" x="102.77" y="-16.99" angle="238.51" type="ev@test" speed="7.38" pos="64.21" lane="e3_0" slope="0.00"/>
    </timestep>
    <timestep time="39.00">
        <vehicle id="0" x="72.98" y="-25.67" angle="299.33" type="car@0" speed="5.25" pos="8.42" lane="e4_0" slope="0.00"/>
        <vehicle id="1" x="125.06" y="-3.34" angle="238.51" type="car@1" speed="7.70" pos="38.08" lane="e3_0" slope="0.00"/>
        <vehicle id="2" x="156.33" y="15.82" angle="205.65" type="car@2" speed="2.30" pos="1.40" lane="e3_0" slope="0.00"/>
        <vehicle id="3" x="141.53" y="2.99" angle="238.51" type="car@3" speed="8.94" pos="20.72" lane="e3_1" slope="0.00"/>
        <vehicle id="test" x="95.55" y="-21.42" angle="238.51" type="ev@test" speed="8.47" pos="72.68" lane="e3_0" slope="0.00"/>
    </timestep>
    <timestep time="40.00">
        <vehicle id="0" x="65.64" y="-21.54" angle="299.33" type="car@0" speed="8.42" pos="16.84" lane="e4_0" slope="0.00"/>
        <vehicle id="1" x="118.07" y="-7.62" angle="238.51" type="car@1" speed="8.19" pos="46.27" lane="e3_0" slope="0.00"/>
        <vehicle id="2" x="152.66" y="13.57" angle="238.51" type="car@2" speed="4.31" pos="5.71" lane="e3_0" slope="0.00"/>
        <vehicle id="3" x="135.78" y="-0.53" angle="238.51" type="car@3" speed="6.74" pos="27.46" lane="e3_1" slope="0.00"/>
        <vehicle id="test" x="88.41" y="-25.79" angle="238.51" type="ev@test" speed="8.36" pos="81.05" lane="e3_0" slope="0.00"/>
    </timestep>
    <timestep time="41.00">
        <vehicle id="0" x="58.43" y="-17.49" angle="299.33" type="car@0" speed="8.27" pos="25.10" lane="e4_0" slope="0.00"/>
        <vehicle id="1" x="112.46" y="-11.06" angle="238.51" type="car@1" speed="6.58" pos="52.85" lane="e3_0" slope="0.00"/>
        <vehicle id="2" x="147.30" y="10.28" angle="238.51" type="car@2" speed="6.29" pos="11.99" lane="e3_0" slope="0.00"/>
        <vehicle id="3" x="128.97" y="-4.70" angle="238.51" type="car@3" speed="7.99" pos="35.45" lane="e3_1" slope="0.00"/>
        <vehicle id="test" x="83.16" y="-29.01" angle="238.51" type="ev@test" speed="6.16" pos="87.21" lane="e3_0" slope="0.00"/>
    </timestep>
    <timestep time="42.00">
        <vehicle id="0" x="50.11" y="-12.81" angle="299.33" type="car@0" speed="9.55" pos="34.65" lane="e4_0" slope="0.00"/>
        <vehicle id="1" x="106.59" y="-14.66" angle="238.51" type="car@1" speed="6.89" pos="59.74" lane="e3_0" slope="0.00"/>
        <vehicle id="2" x="140.11" y="5.88" angle="238.51" type="car@2" speed="8.44" pos="20.43" lane="e3_0" slope="0.00"/>
        <vehicle id="3" x="121.19" y="-9.47" angle="238.51" type="car@3" speed="9.12" pos="44.57" lane="e3_1" slope="0.00"/>
        <vehicle id="test" x="79.60" y="-29.39" angle="252.26" type="ev@test" speed="3.96" pos="0.82" lane="e4_0" slope="0.00"/>
    </timestep>
    <timestep time="43.00">
        <vehicle id="0" x="43.70" y="-9.21" angle="299.33" type="car@0" speed="7.35" pos="42.00" lane="e4_0" slope="0.00"/>
        <vehicle id="1" x="100.41" y="-18.44" angle="238.51" type="car@1" speed="7.24" pos="66.98" lane="e3_0" slope="0.00"/>
        <vehicle id="2" x="131.71" y="0.73" angle="238.51" type="car@2" speed="9.85" pos="30.28" lane="e3_0" slope="0.00"/>
        <vehicle id="3" x="112.93" y="-14.53" angle="238.51" type="car@3" speed="9.69" pos="54.27" lane="e3_1" slope="0.00"/>
        <vehicle id="test" x="75.88" y="-27.29" angle="290.74" type="ev@test" speed="4.27" pos="5.09" lane="e4_0" slope="0.00"/>
    </timestep>
    <timestep time="44.00">
        <vehicle id="0" x="37.56" y="-5.77" angle="299.33" type="car@0" speed="7.04" pos="49.04" lane="e4_0" slope="0.00"/>
        <vehicle id="1" x="92.79" y="-23.11" angle="238.51" type="car@1" speed="8.94" pos="75.91" lane="e3_0" slope="0.00"/>
        <vehicle id="2" x="125.19" y="-3.26" angle="238.51" type="car@2" speed="7.65" pos="37.92" lane="e3_0" slope="0.00"/>
        <vehicle id="3" x="105.36" y="-19.17" angle="238.51" type="car@3" speed="8.88" pos="63.15" lane="e3_1" slope="0.00"/>
        <vehicle id="test" x="69.41" y="-23.66" angle="299.33" type="ev@test" speed="7.42" pos="12.51" lane="e4_0" slope="0.00"/>
    </timestep>
    <timestep time="45.00">
        <vehicle id="0" x="30.64" y="-1.87" angle="299.33" type="car@0" speed="7.94" pos="56.98" lane="e4_0" slope="0.00"/>
        <vehicle id="1" x="87.05" y="-26.63" angle="238.51" type="car@1" speed="6.74" pos="82.65" lane="e3_0" slope="0.00"/>
        <vehicle id="2" x="119.54" y="-6.72" angle="238.51" type="car@2" speed="6.62" pos="44.54" lane="e3_0" slope="0.00"/>
        <vehicle id="3" x="97.66" y="-23.88" angle="238.51" type="car@3" speed="9.03" pos="72.18" lane="e3_1" slope="0.00"/>
        <vehicle id="test" x="60.70" y="-18.77" angle="299.33" type="ev@test" speed="9.99" pos="22.50" lane="e4_0" slope="0.00"/>
    </timestep>
    <timestep time="46.00">
        <vehicle id="0" x="22.88" y="2.49" angle="299.33" type="car@0" speed="8.90" pos="65.88" lane="e4_0" slope="0.00"/>
        <vehicle id="1" x="82.29" y="-29.54" angle="238.51" type="car@1" speed="5.58" pos="88.23" lane="e3_0" slope="0.00"/>
        <vehicle id="2" x="111.35" y="-11.74" angle="238.51" type="car@2" speed="9.61" pos="54.15" lane="e3_0" slope="0.00"/>
        <vehicle id="3" x="91.14" y="-27.87" angle="238.51" type="car@3" speed="7.64" pos="79.82" lane="e3_1" slope="0.00"/>
        <vehicle id="test" x="53.91" y="-14.95" angle="299.33" type="ev@test" speed="7.79" pos="30.29" lane="e4_0" slope="0.00"/>
    </timestep>
    <timestep time="47.00">
        <vehicle id="0" x="16.46" y="6.09" angle="299.33" type="car@0" speed="7.36" pos="73.24" lane="e4_0" slope="0.00"/>
        <vehicle id="1" x="78.95" y="-29.02" angle="267.93" type="car@1" speed="3.69" pos="1.57" lane="e4_0" slope="0.00"/>
        <vehicle id="2" x="102.86" y="-16.94" angle="238.51" type="car@2" speed="9.96" pos="64.10" lane="e3_0" slope="0.00"/>
        <vehicle id="3" x="85.38" y="-31.41" angle="238.51" type="car@3" speed="6.76" pos="86.58" lane="e3_1" slope="0.00"/>
        <vehicle id="test" x="47.29" y="-11.23" angle="299.33" type="ev@test" speed="7.60" pos="37.89" lane="e4_0" slope="0.00"/>
    </timestep>
    <timestep time="48.00">
        <vehicle id="0" x="9.13" y="10.21" angle="299.33" type="car@0" speed="8.41" pos="81.65" lane="e4_0" slope="0.00"/>
        <vehicle id="1" x="74.35" y="-26.44" angle="299.33" type="car@1" speed="5.27" pos="6.85" lane="e4_0" slope="0.00"/>
        <vehicle id="2" x="95.69" y="-21.33" angle="238.51" type="car@2" speed="8.41" pos="72.51" lane="e3_0" slope="0.00"/>
        <vehicle id="3" x="81.26" y="-33.24" angle="245.35" type="car@3" speed="4.56" pos="2.49" lane=":j4_0_1" slope="0.00"/>
        <vehicle id="test" x="41.46" y="-7.96" angle="299.33" type="ev@test" speed="6.68" pos="44.57" lane="e4_0" slope="0.00"/>
    </timestep>
    <timestep time="49.00">
        <vehicle id="0" x="3.71" y="13.26" angle="299.33" type="car@0" speed="6.21" pos="87.87" lane="e4_0" slope="0.00"/>
        <vehicle id="1" x="67.92" y="-22.82" angle="299.33" type="car@1" speed="7.38" pos="14.22" lane="e4_0" slope="0.00"/>