<?xml version="1.0" encoding="UTF-8"?>

<!-- generated on 2024-08-09 15:41:34 by Eclipse SUMO GUI Version 1.20.0
<configuration xmlns:xsi="http://www.w3.org/2001/XMLSchema-instance" xsi:noNamespaceSchemaLocation="http://sumo.dlr.de/xsd/sumoConfiguration.xsd">

    <input>
        <net-file value="test.net.xml"/>
        <route-files value="test.rou.xml"/>
    </input>

    <output>
        <fcd-output value="FCD.xml"/>
        <edgedata-output value="edgeOutput.xml"/>
        <lanedata-output value="laneOutput.xml"/>
    </output>

    <traci_server>
        <remote-port value="61844"/>
    </traci_server>

</configuration>
-->

<fcd-export xmlns:xsi="http://www.w3.org/2001/XMLSchema-instance" xsi:noNamespaceSchemaLocation="http://sumo.dlr.de/xsd/fcd_file.xsd">
    <timestep time="0.00">
        <vehicle id="0" x="85.79" y="131.01" angle="115.93" type="car" speed="0.00" pos="5.10" lane="e1_0" slope="0.00"/>
    </timestep>
    <timestep time="1.00">
        <vehicle id="0" x="88.26" y="129.81" angle="115.93" type="car@0" speed="2.75" pos="7.85" lane="e1_0" slope="0.00"/>
    </timestep>
    <timestep time="2.00">
        <vehicle id="0" x="93.55" y="127.24" angle="115.93" type="car@0" speed="5.88" pos="13.73" lane="e1_0" slope="0.00"/>
    </timestep>
    <timestep time="3.00">
        <vehicle id="0" x="99.87" y="124.16" angle="115.93" type="car@0" speed="7.03" pos="20.76" lane="e1_0" slope="0.00"/>
        <vehicle id="1" x="85.79" y="131.01" angle="115.93" type="car" speed="0.00" pos="5.10" lane="e1_0" slope="0.00"/>
    </timestep>
    <timestep time="4.00">
        <vehicle id="0" x="106.91" y="120.74" angle="115.93" type="car@0" speed="7.83" pos="28.59" lane="e1_0" slope="0.00"/>
        <vehicle id="1" x="87.23" y="133.87" angle="115.93" type="car@1" speed="0.05" pos="5.15" lane="e1_1" slope="0.00"/>
    </timestep>
    <timestep time="5.00">
        <vehicle id="0" x="115.10" y="116.76" angle="115.93" type="car@0" speed="9.11" pos="37.69" lane="e1_0" slope="0.00"/>
        <vehicle id="1" x="87.41" y="133.78" angle="115.93" type="car@1" speed="0.20" pos="5.35" lane="e1_1" slope="0.00"/>
    </timestep>
    <timestep time="6.00">
        <vehicle id="0" x="121.39" y="113.70" angle="115.93" type="car@0" speed="6.99" pos="44.69" lane="e1_0" slope="0.00"/>
        <vehicle id="1" x="88.08" y="133.45" angle="115.93" type="car@1" speed="0.75" pos="6.10" lane="e1_1" slope="0.00"/>
        <vehicle id="test" x="87.59" y="130.14" angle="115.93" type="ev" speed="0.00" pos="7.10" lane="e1_0" slope="0.00"/>
    </timestep>
    <timestep time="7.00">
        <vehicle id="0" x="129.45" y="109.78" angle="115.93" type="car@0" speed="8.96" pos="53.65" lane="e1_0" slope="0.00"/>
        <vehicle id="1" x="89.14" y="132.94" angle="115.93" type="car@1" speed="1.18" pos="7.28" lane="e1_1" slope="0.00"/>
        <vehicle id="test" x="87.63" y="130.11" angle="115.93" type="ev@test" speed="0.05" pos="7.15" lane="e1_0" slope="0.00"/>
    </timestep>
    <timestep time="8.00">
        <vehicle id="0" x="137.47" y="105.89" angle="115.93" type="car@0" speed="8.91" pos="62.56" lane="e1_0" slope="0.00"/>
        <vehicle id="1" x="93.23" y="130.95" angle="115.93" type="car@1" speed="4.55" pos="11.82" lane="e1_1" slope="0.00"/>
        <vehicle id="test" x="88.08" y="129.90" angle="115.93" type="ev@test" speed="0.49" pos="7.65" lane="e1_0" slope="0.00"/>
    </timestep>
    <timestep time="9.00">
        <vehicle id="0" x="144.04" y="102.69" angle="115.93" type="car@0" speed="7.31" pos="69.87" lane="e1_0" slope="0.00"/>
        <vehicle id="1" x="99.16" y="128.07" angle="115.93" type="car@1" speed="6.59" pos="18.41" lane="e1_1" slope="0.00"/>
        <vehicle id="test" x="88.19" y="129.84" angle="115.93" type="ev@test" speed="0.13" pos="7.77" lane="e1_0" slope="0.00"/>
    </timestep>
    <timestep time="10.00">
        <vehicle id="0" x="148.80" y="100.38" angle="115.93" type="car@0" speed="5.29" pos="75.16" lane="e1_0" slope="0.00"/>
        <vehicle id="1" x="107.70" y="123.91" angle="115.93" type="car@1" speed="9.50" pos="27.91" lane="e1_1" slope="0.00"/>
        <vehicle id="test" x="88.72" y="129.58" angle="115.93" type="ev@test" speed="0.59" pos="8.37" lane="e1_0" slope="0.00"/>
    </timestep>
    <timestep time="11.00">
        <vehicle id="0" x="152.49" y="98.58" angle="115.93" type="car@0" speed="4.11" pos="79.27" lane="e1_0" slope="0.00"/>
        <vehicle id="1" x="116.43" y="119.67" angle="115.93" type="car@1" speed="9.70" pos="37.61" lane="e1_1" slope="0.00"/>
        <vehicle id="test" x="89.28" y="129.31" angle="115.93" type="ev@test" speed="0.61" pos="8.98" lane="e1_0" slope="0.00"/>
    </timestep>
    <timestep time="12.00">
        <vehicle id="0" x="155.09" y="97.32" angle="115.93" type="car@0" speed="2.89" pos="82.16" lane="e1_0" slope="0.00"/>
        <vehicle id="1" x="125.01" y="115.50" angle="115.93" type="car@1" speed="9.54" pos="47.15" lane="e1_1" slope="0.00"/>
        <vehicle id="test" x="89.38" y="129.26" angle="115.93" type="ev@test" speed="0.12" pos="9.10" lane="e1_0" slope="0.00"/>
    </timestep>
    <timestep time="13.00">
        <vehicle id="0" x="157.33" y="96.19" angle="116.35" type="car@0" speed="2.50" pos="0.27" lane=":j2_0_0" slope="0.00"/>
        <vehicle id="1" x="131.61" y="112.29" angle="115.93" type="car@1" speed="7.34" pos="54.49" lane="e1_1" slope="0.00"/>
        <vehicle id="test" x="89.39" y="129.26" angle="115.93" type="ev@test" speed="0.00" pos="9.10" lane="e1_0" slope="0.00"/>
    </timestep>
    <timestep time="14.00">
        <vehicle id="0" x="158.01" y="92.89" angle="153.49" type="car@0" speed="3.53" pos="2.01" lane="e2_0" slope="0.00"/>
        <vehicle id="1" x="139.29" y="108.55" angle="115.93" type="car@1" speed="8.54" pos="63.03" lane="e1_1" slope="0.00"/>
        <vehicle id="test" x="89.99" y="128.96" angle="115.93" type="ev@test" speed="0.68" pos="9.78" lane="e1_0" slope="0.00"/>
    </timestep>
    <timestep time="15.00">
        <vehicle id="0" x="158.03" y="86.11" angle="179.78" type="car@0" speed="6.78" pos="8.79" lane="e2_0" slope="0.00"/>
        <vehicle id="1" x="147.24" y="104.69" angle="115.93" type="car@1" speed="8.84" pos="71.87" lane="e1_1" slope="0.00"/>
        <vehicle id="test" x="90.24" y="128.84" angle="115.93" type="ev@test" speed="0.27" pos="10.05" lane="e1_0" slope="0.00"/>
    </timestep>
    <timestep time="16.00">
        <vehicle id="0" x="158.07" y="77.41" angle="179.78" type="car@0" speed="8.70" pos="17.49" lane="e2_0" slope="0.00"/>
        <vehicle id="1" x="154.40" y="101.20" angle="115.93" type="car@1" speed="7.96" pos="79.83" lane="e1_1" slope="0.00"/>
        <vehicle id="test" x="90.74" y="128.60" angle="115.93" type="ev@test" speed="0.55" pos="10.61" lane="e1_0" slope="0.00"/>
    </timestep>
    <timestep time="17.00">
        <vehicle id="0" x="158.09" y="70.80" angle="179.78" type="car@0" speed="6.60" pos="24.10" lane="e2_0" slope="0.00"/>
        <vehicle id="1" x="159.51" y="98.56" angle="117.58" type="car@1" speed="5.76" pos="1.20" lane=":j2_0_1" slope="0.00"/>
        <vehicle id="test" x="91.04" y="128.46" angle="115.93" type="ev@test" speed="0.34" pos="10.94" lane="e1_0" slope="0.00"/>
    </timestep>
    <timestep time="18.00">
        <vehicle id="0" x="158.12" y="63.42" angle="179.78" type="car@0" speed="7.38" pos="31.48" lane="e2_0" slope="0.00"/>
        <vehicle id="1" x="161.20" y="94.76" angle="151.58" type="car@1" speed="4.33" pos="0.16" lane="e2_1" slope="0.00"/>
        <vehicle id="test" x="91.25" y="128.35" angle="115.93" type="ev@test" speed="0.23" pos="11.17" lane="e1_0" slope="0.00"/>
    </timestep>
    <timestep time="19.00">
        <vehicle id="0" x="158.14" y="56.74" angle="179.78" type="car@0" speed="6.68" pos="38.16" lane="e2_0" slope="0.00"/>
        <vehicle id="1" x="161.23" y="87.43" angle="179.78" type="car@1" speed="7.33" pos="7.49" lane="e2_1" slope="0.00"/>
        <vehicle id="test" x="91.98" y="128.00" angle="115.93" type="ev@test" speed="0.81" pos="11.99" lane="e1_0" slope="0.00"/>
    </timestep>
    <timestep time="20.00">
        <vehicle id="0" x="158.18" y="48.07" angle="179.78" type="car@0" speed="8.67" pos="46.83" lane="e2_0" slope="0.00"/>
        <vehicle id="1" x="161.25" y="80.51" angle="179.78" type="car@1" speed="6.92" pos="14.41" lane="e2_1" slope="0.00"/>
        <vehicle id="test" x="92.11" y="127.94" angle="115.93" type="ev@test" speed="0.15" pos="12.13" lane="e1_0" slope="0.00"/>
    </timestep>
    <timestep time="21.00">
        <vehicle id="0" x="158.21" y="39.34" angle="179.78" type="car@0" speed="8.74" pos="55.56" lane="e2_0" slope="0.00"/>
        <vehicle id="1" x="161.29" y="70.96" angle="179.78" type="car@1" speed="9.54" pos="23.96" lane="e2_1" slope="0.00"/>
        <vehicle id="test" x="92.28" y="127.85" angle="115.93" type="ev@test" speed="0.19" pos="12.32" lane="e1_0" slope="0.00"/>
    </timestep>
    <timestep time="22.00">
        <vehicle id="0" x="158.23" y="32.80" angle="179.78" type="car@0" speed="6.54" pos="62.10" lane="e2_0" slope="0.00"/>
        <vehicle id="1" x="161.32" y="62.24" angle="179.78" type="car@1" speed="8.72" pos="32.68" lane="e2_1" slope="0.00"/>
        <vehicle id="test" x="93.15" y="127.43" angle="115.93" type="ev@test" speed="0.97" pos="13.29" lane="e1_0" slope="0.00"/>
    </timestep>
    <timestep time="23.00">
        <vehicle id="0" x="158.26" y="26.54" angle="179.78" type="car@0" speed="6.26" pos="68.36" lane="e2_0" slope="0.00"/>
        <vehicle id="1" x="161.35" y="54.42" angle="179.78" type="car@1" speed="7.82" pos="40.50" lane="e2_1" slope="0.00"/>
        <vehicle id="test" x="93.58" y="127.22" angle="115.93" type="ev@test" speed="0.48" pos="13.77" lane="e1_0" slope="0.00"/>
    </timestep>
    <timestep time="24.00">
        <vehicle id="0" x="158.28" y="21.33" angle="179.78" type="car@0" speed="5.20" pos="73.57" lane="e2_0" slope="0.00"/>
        <vehicle id="1" x="161.39" y="44.53" angle="179.78" type="car@1" speed="9.88" pos="50.38" lane="e2_1" slope="0.00"/>
        <vehicle id="test" x="93.60" y="127.21" angle="115.93" type="ev@test" speed="0.02" pos="13.79" lane="e1_0" slope="0.00"/>
    </timestep>
    <timestep time="25.00">
        <vehicle id="0" x="158.29" y="18.33" angle="179.78" type="car@0" speed="3.00" pos="76.57" lane="e2_0" slope="0.00"/>
        <vehicle id="1" x="161.42" y="36.39" angle="179.78" type="car@1" speed="8.14" pos="58.52" lane="e2_1" slope="0.00"/>
        <vehicle id="2" x="85.79" y="131.01" angle="115.93" type="car" speed="0.00" pos="5.10" lane="e1_0" slope="0.00"/>
        <vehicle id="test" x="94.78" y="126.64" angle="115.93" type="ev@test" speed="1.30" pos="15.09" lane="e1_0" slope="0.00"/>
    </timestep>
    <timestep time="26.00">
        <vehicle id="0" x="157.98" y="16.96" angle="183.48" type="car@0" speed="1.44" pos="1.03" lane=":j3_0_0" slope="0.00"/>
        <vehicle id="1" x="161.45" y="29.11" angle="179.78" type="car@1" speed="7.28" pos="65.80" lane="e2_1" slope="0.00"/>
        <vehicle id="2" x="87.19" y="133.89" angle="115.93" type="car@2" speed="0.00" pos="5.10" lane="e1_1" slope="0.00"/>
        <vehicle id="3" x="85.79" y="131.01" angle="115.93" type="car" speed="0.00" pos="5.10" lane="e1_0" slope="0.00"/>
        <vehicle id="test" x="95.37" y="126.35" angle="115.93" type="ev@test" speed="0.66" pos="15.76" lane="e1_0" slope="0.00"/>
    </timestep>
    <timestep time="27.00">
        <vehicle id="0" x="155.74" y="15.45" angle="214.32" type="car@0" speed="2.71" pos="2.10" lane="e3_0" slope="0.00"/>
        <vehicle id="1" x="161.48" y="21.39" angle="179.78" type="car@1" speed="7.71" pos="73.52" lane="e2_1" slope="0.00"/>
        <vehicle id="2" x="89.61" y="136.27" angle="115.93" type="car@2" speed="1.13" pos="6.24" lane="e1_2" slope="0.00"/>
        <vehicle id="3" x="87.19" y="133.89" angle="115.93" type="car@3" speed="0.01" pos="5.11" lane="e1_1" slope="0.00"/>
        <vehicle id="test" x="95.59" y="126.24" angle="115.93" type="ev@test" speed="0.25" pos="16.00" lane="e1_0" slope="0.00"/>
    </timestep>
    <timestep time="28.00">
        <vehicle id="0" x="151.33" y="12.75" angle="238.51" type="car@0" speed="5.18" pos="7.27" lane="e3_0" slope="0.00"/>
        <vehicle id="1" x="161.07" y="15.94" angle="184.74" type="car@1" speed="5.51" pos="2.05" lane=":j3_0_1" slope="0.00"/>
        <vehicle id="2" x="91.51" y="135.35" angle="115.93" type="car@2" speed="2.12" pos="8.35" lane="e1_2" slope="0.00"/>
        <vehicle id="3" x="88.06" y="133.47" angle="115.93" type="car@3" speed="0.96" pos="6.07" lane="e1_1" slope="0.00"/>
        <vehicle id="test" x="96.12" y="125.99" angle="115.93" type="ev@test" speed="0.58" pos="16.59" lane="e1_0" slope="0.00"/>
    </timestep>
    <timestep time="29.00">
        <vehicle id="0" x="144.12" y="8.34" angle="238.51" type="car@0" speed="8.45" pos="15.72" lane="e3_0" slope="0.00"/>
        <vehicle id="1" x="156.85" y="12.38" angle="232.71" type="car@1" speed="5.64" pos="2.76" lane="e3_1" slope="0.00"/>
        <vehicle id="2" x="96.00" y="133.17" angle="115.93" type="car@2" speed="4.98" pos="13.34" lane="e1_2" slope="0.00"/>
        <vehicle id="3" x="88.21" y="133.39" angle="115.93" type="car@3" speed="0.16" pos="6.23" lane="e1_1" slope="0.00"/>
        <vehicle id="test" x="96.98" y="125.57" angle="115.93" type="ev@test" speed="0.96" pos="17.54" lane="e1_0" slope="0.00"/>
    </timestep>
    <timestep time="30.00">
        <vehicle id="0" x="136.19" y="3.48" angle="238.51" type="car@0" speed="9.30" pos="25.02" lane="e3_0" slope="0.00"/>
        <vehicle id="1" x="150.91" y="8.74" angle="238.51" type="car@1" speed="6.96" pos="9.72" lane="e3_1" slope="0.00"/>
        <vehicle id="2" x="103.57" y="129.48" angle="115.93" type="car@2" speed="8.43" pos="21.76" lane="e1_2" slope="0.00"/>
        <vehicle id="3" x="88.65" y="133.18" angle="115.93" type="car@3" speed="0.49" pos="6.72" lane="e1_1" slope="0.00"/>
        <vehicle id="test" x="97.52" y="125.30" angle="115.93" type="ev@test" speed="0.60" pos="18.15" lane="e1_0" slope="0.00"/>
    </timestep>
    <timestep time="31.00">
        <vehicle id="0" x="128.39" y="-1.30" angle="238.51" type="car@0" speed="9.16" pos="34.17" lane="e3_0" slope="0.00"/>
        <vehicle id="1" x="143.83" y="4.40" angle="238.51" type="car@1" speed="8.31" pos="18.03" lane="e3_1" slope="0.00"/>
        <vehicle id="2" x="112.16" y="125.31" angle="115.93" type="car@2" speed="9.54" pos="31.31" lane="e1_2" slope="0.00"/>
        <vehicle id="3" x="89.90" y="132.57" angle="115.93" type="car@3" speed="1.39" pos="8.12" lane="e1_1" slope="0.00"/>
        <vehicle id="test" x="98.32" y="124.92" angle="115.93" type="ev@test" speed="0.89" pos="19.04" lane="e1_0" slope="0.00"/>
    </timestep>
    <timestep time="32.00">
        <vehicle id="0" x="120.47" y="-6.15" angle="238.51" type="car@0" speed="9.28" pos="43.45" lane="e3_0" slope="0.00"/>
        <vehicle id="1" x="137.31" y="0.41" angle="238.51" type="car@1" speed="7.64" pos="25.67" lane="e3_1" slope="0.00"/>
        <vehicle id="2" x="120.81" y="121.10" angle="115.93" type="car@2" speed="9.62" pos="40.93" lane="e1_2" slope="0.00"/>
        <vehicle id="3" x="90.02" y="132.51" angle="115.93" type="car@3" speed="0.13" pos="8.25" lane="e1_1" slope="0.00"/>
        <vehicle id="test" x="98.88" y="124.64" angle="115.93" type="ev@test" speed="0.62" pos="19.66" lane="e1_0" slope="0.00"/>
    </timestep>
    <timestep time="33.00">
        <vehicle id="0" x="113.75" y="-10.27" angle="238.51" type="car@0" speed="7.89" pos="51.34" lane="e3_0" slope="0.00"/>
        <vehicle id="1" x="130.41" y="-3.82" angle="238.51" type="car@1" speed="8.10" pos="33.77" lane="e3_1" slope="0.00"/>
        <vehicle id="2" x="127.49" y="117.85" angle="115.93" type="car@2" speed="7.42" pos="48.36" lane="e1_2" slope="0.00"/>
        <vehicle id="3" x="90.43" y="132.31" angle="115.93" type="car@3" speed="0.46" pos="8.70" lane="e1_1" slope="0.00"/>
        <vehicle id="test" x="100.17" y="124.02" angle="115.93" type="ev@test" speed="1.44" pos="21.09" lane="e1_0" slope="0.00"/>
    </timestep>
    <timestep time="34.00">
        <vehicle id="0" x="108.07" y="-13.75" angle="238.51" type="car@0" speed="6.66" pos="58.00" lane="e3_0" slope="0.00"/>
        <vehicle id="1" x="122.84" y="-8.45" angle="238.51" type="car@1" speed="8.87" pos="42.64" lane="e3_1" slope="0.00"/>
        <vehicle id="2" x="135.87" y="113.78" angle="115.93" type="car@2" speed="9.31" pos="57.67" lane="e1_2" slope="0.00"/>
        <vehicle id="3" x="91.26" y="131.91" angle="115.93" type="car@3" speed="0.92" pos="9.63" lane="e1_1" slope="0.00"/>
        <vehicle id="test" x="101.27" y="123.48" angle="115.93" type="ev@test" speed="1.22" pos="22.32" lane="e1_0" slope="0.00"/>
    </timestep>
    <timestep time="35.00">
        <vehicle id="0" x="101.51" y="-17.77" angle="238.51" type="car@0" speed="7.69" pos="65.69" lane="e3_0" slope="0.00"/>
        <vehicle id="1" x="114.67" y="-13.46" angle="238.51" type="car@1" speed="9.59" pos="52.22" lane="e3_1" slope="0.00"/>
        <vehicle id="2" x="144.67" y="109.50" angle="115.93" type="car@2" speed="9.79" pos="67.45" lane="e1_2" slope="0.00"/>
        <vehicle id="3" x="91.26" y="131.91" angle="115.93" type="car@3" speed="0.00" pos="9.63" lane="e1_1" slope="0.00"/>
        <vehicle id="test" x="102.17" y="123.04" angle="115.93" type="ev@test" speed="1.01" pos="23.32" lane="e1_0" slope="0.00"/>
    </timestep>
    <timestep time="36.00">
        <vehicle id="0" x="95.92" y="-21.19" angle="238.51" type="car@0" speed="6.55" pos="72.24" lane="e3_0" slope="0.00"/>
        <vehicle id="1" x="108.37" y="-17.32" angle="238.51" type="car@1" speed="7.39" pos="59.61" lane="e3_1" slope="0.00"/>
        <vehicle id="2" x="152.33" y="105.77" angle="115.93" type="car@2" speed="8.52" pos="75.97" lane="e1_2" slope="0.00"/>
        <vehicle id="3" x="92.36" y="131.38" angle="115.93" type="car@3" speed="1.22" pos="10.85" lane="e1_1" slope="0.00"/>
        <vehicle id="test" x="103.60" y="122.35" angle="115.93" type="ev@test" speed="1.58" pos="24.91" lane="e1_0" slope="0.00"/>
    </timestep>
    <timestep time="37.00">
        <vehicle id="0" x="89.61" y="-25.06" angle="238.51" type="car@0" speed="7.40" pos="79.64" lane="e3_0" slope="0.00"/>
        <vehicle id="1" x="99.89" y="-22.52" angle="238.51" type="car@1" speed="9.95" pos="69.56" lane="e3_1" slope="0.00"/>
        <vehicle id="2" x="159.30" y="102.38" angle="115.93" type="car@2" speed="7.75" pos="83.73" lane="e1_2" slope="0.00"/>
        <vehicle id="3" x="94.03" y="130.56" angle="115.93" type="car@3" speed="1.86" pos="12.71" lane="e1_1" slope="0.00"/>
        <vehicle id="test" x="103.62" y="122.34" angle="115.93" type="ev@test" speed="0.02" pos="24.92" lane="e1_0" slope="0.00"/>
    </timestep>
    <timestep time="38.00">
        <vehicle id="0" x="84.93" y="-27.92" angle="238.51" type="car@0" speed="5.49" pos="85.13" lane="e3_0" slope="0.00"/>
        <vehicle id="1" x="92.26" y="-27.19" angle="238.51" type="car@1" speed="8.94" pos="78.50" lane="e3_1" slope="0.00"/>
        <vehicle id="2" x="164.22" y="96.35" angle="152.70" type="car@2" speed="8.18" pos="7.52" lane=":j2_0_2" slope="0.00"/>
        <vehicle id="3" x="94.68" y="130.25" angle="115.93" type="car@3" speed="0.72" pos="13.43" lane="e1_1" slope="0.00"/>
        <vehicle id="test" x="103.71" y="122.30" angle="115.93" type="ev@test" speed="0.10" pos="25.02" lane="e1_0" slope="0.00"/>
    </timestep>
    <timestep time="39.00">
        <vehicle id="0" x="82.12" y="-29.64" angle="238.51" type="car@0" speed="3.29" pos="88.43" lane="e3_0" slope="0.00"/>
        <vehicle id="1" x="86.52" y="-30.71" angle="238.51" type="car@1" speed="6.74" pos="85.24" lane="e3_1" slope="0.00"/>
        <vehicle id="2" x="164.42" y="90.38" angle="179.16" type="car@2" speed="5.98" pos="4.55" lane="e2_2" slope="0.00"/>
        <vehicle id="3" x="94.95" y="130.11" angle="115.93" type="car@3" speed="0.30" pos="13.73" lane="e1_1" slope="0.00"/>
        <vehicle id="test" x="103.90" y="122.20" angle="115.93" type="ev@test" speed="0.22" pos="25.24" lane="e1_0" slope="0.00"/>
    </timestep>
    <timestep time="40.00">
        <vehicle id="0" x="79.55" y="-29.36" angle="259.03" type="car@0" speed="2.81" pos="0.88" lane="e4_0" slope="0.00"/>
        <vehicle id="1" x="82.58" y="-32.97" angle="240.01" type="car@1" speed="4.54" pos="1.13" lane=":j4_0_1" slope="0.00"/>
        <vehicle id="2" x="164.45" y="81.11" angle="179.78" type="car@2" speed="9.27" pos="13.82" lane="e2_2" slope="0.00"/>
        <vehicle id="3" x="95.38" y="129.91" angle="115.93" type="car@3" speed="0.48" pos="14.21" lane="e1_1" slope="0.00"/>
        <vehicle id="test" x="105.41" y="121.47" angle="115.93" type="ev@test" speed="1.67" pos="26.91" lane="e1_0" slope="0.00"/>
    </timestep>
    <timestep time="41.00">
        <vehicle id="0" x="76.02" y="-27.37" angle="299.25" type="car@0" speed="4.05" pos="4.94" lane="e4_0" slope="0.00"/>
        <vehicle id="1" x="78.51" y="-32.45" angle="272.49" type="car@1" speed="4.25" pos="0.27" lane="e4_1" slope="0.00"/>
        <vehicle id="2" x="164.48" y="73.72" angle="179.78" type="car@2" speed="7.38" pos="21.21" lane="e2_2" slope="0.00"/>
        <vehicle id="3" x="96.86" y="129.19" angle="115.93" type="car@3" speed="1.64" pos="15.85" lane="e1_1" slope="0.00"/>
        <vehicle id="test" x="106.83" y="120.78" angle="115.93" type="ev@test" speed="1.58" pos="28.50" lane="e1_0" slope="0.00"/>
    </timestep>
    <timestep time="42.00">
        <vehicle id="0" x="69.72" y="-23.83" angle="299.33" type="car@0" speed="7.22" pos="12.16" lane="e4_0" slope="0.00"/>
        <vehicle id="1" x="73.18" y="-29.45" angle="299.34" type="car@1" speed="6.12" pos="6.39" lane="e4_1" slope="0.00"/>
        <vehicle id="2" x="164.51" y="66.55" angle="179.78" type="car@2" speed="7.17" pos="28.38" lane="e2_2" slope="0.00"/>
        <vehicle id="3" x="98.22" y="128.52" angle="115.93" type="car@3" speed="1.52" pos="17.37" lane="e1_1" slope="0.00"/>
        <vehicle id="test" x="108.60" y="119.92" angle="115.93" type="ev@test" speed="1.97" pos="30.47" lane="e1_0" slope="0.00"/>
    </timestep>
    <timestep time="43.00">
        <vehicle id="0" x="62.51" y="-19.78" angle="299.33" type="car@0" speed="8.27" pos="20.43" lane="e4_0" slope="0.00"/>
        <vehicle id="1" x="67.53" y="-26.27" angle="299.34" type="car@1" speed="6.48" pos="12.87" lane="e4_1" slope="0.00"/>
        <vehicle id="2" x="164.54" y="56.75" angle="179.78" type="car@2" speed="9.80" pos="38.18" lane="e2_2" slope="0.00"/>
        <vehicle id="3" x="99.62" y="127.84" angle="115.93" type="car@3" speed="1.56" pos="18.92" lane="e1_1" slope="0.00"/>
        <vehicle id="test" x="110.45" y="119.02" angle="115.93" type="ev@test" speed="2.05" pos="32.52" lane="e1_0" slope="0.00"/>
    </timestep>
    <timestep time="44.00">
        <vehicle id="0" x="54.18" y="-15.10" angle="299.33" type="car@0" speed="9.55" pos="29.98" lane="e4_0" slope="0.00"/>
        <vehicle id="1" x="59.22" y="-21.61" angle="299.34" type="car@1" speed="9.53" pos="22.40" lane="e4_1" slope="0.00"/>
        <vehicle id="2" x="164.57" y="49.14" angle="179.78" type="car@2" speed="7.60" pos="45.79" lane="e2_2" slope="0.00"/>
        <vehicle id="3" x="101.07" y="127.14" angle="115.93" type="car@3" speed="1.62" pos="20.54" lane="e1_1" slope="0.00"/>
        <vehicle id="test" x="111.12" y="118.69" angle="115.93" type="ev@test" speed="0.75" pos="33.27" lane="e1_0" slope="0.00"/>
    </timestep>
    <timestep time="45.00">
        <vehicle id="0" x="47.78" y="-11.50" angle="299.33" type="car@0" speed="7.35" pos="37.33" lane="e4_0" slope="0.00"/>
        <vehicle id="1" x="51.90" y="-17.49" angle="299.34" type="car@1" speed="8.40" pos="30.80" lane="e4_1" slope="0.00"/>
        <vehicle id="2" x="164.60" y="41.09" angle="179.78" type="car@2" speed="8.06" pos="53.84" lane="e2_2" slope="0.00"/>
        <vehicle id="3" x="101.58" y="126.89" angle="115.93" type="car@3" speed="0.56" pos="21.10" lane="e1_1" slope="0.00"/>
        <vehicle id="test" x="112.06" y="118.24" angle="115.93" type="ev@test" speed="1.04" pos="34.31" lane="e1_0" slope="0.00"/>
    </timestep>
    <timestep time="46.00">
        <vehicle id="0" x="41.84" y="-8.17" angle="299.33" type="car@0" speed="6.81" pos="44.14" lane="e4_0" slope="0.00"/>
        <vehicle id="1" x="43.87" y="-12.98" angle="299.34" type="car@1" speed="9.22" pos="40.02" lane="e4_1" slope="0.00"/>
        <vehicle id="2" x="164.63" y="33.06" angle="179.78" type="car@2" speed="8.03" pos="61.87" lane="e2_2" slope="0.00"/>
        <vehicle id="3" x="103.29" y="126.06" angle="115.93" type="car@3" speed="1.90" pos="23.01" lane="e1_1" slope="0.00"/>
        <vehicle id="test" x="113.81" y="117.38" angle="115.93" type="ev@test" speed="1.95" pos="36.26" lane="e1_0" slope="0.00"/>
    </timestep>
    <timestep time="47.00">
        <vehicle id="0" x="35.71" y="-4.72" angle="299.33" type="car@0" speed="7.04" pos="51.17" lane="e4_0" slope="0.00"/>
        <vehicle id="1" x="37.29" y="-9.28" angle="299.34" type="car@1" speed="7.55" pos="47.56" lane="e4_1" slope="0.00"/>
        <vehicle id="2" x="164.67" y="23.22" angle="179.78" type="car@2" speed="9.84" pos="71.71" lane="e2_2" slope="0.00"/>
        <vehicle id="3" x="105.83" y="124.83" angle="115.93" type="car@3" speed="2.82" pos="25.82" lane="e1_1" slope="0.00"/>
        <vehicle id="test" x="115.17" y="116.72" angle="115.93" type="ev@test" speed="1.51" pos="37.77" lane="e1_0" slope="0.00"/>
    </timestep>
    <timestep time="48.00">
        <vehicle id="0" x="27.30" y="0.00" angle="299.33" type="car@0" speed="9.64" pos="60.82" lane="e4_0" slope="0.00"/>
        <vehicle id="1" x="29.29" y="-4.78" angle="299.34" type="car@1" speed="9.17" pos="56.74" lane="e4_1" slope="0.00"/>
        <vehicle id="2" x="164.24" y="15.27" angle="185.05" type="car@2" speed="8.00" pos="2.73" lane=":j3_0_2" slope="0.00"/>
        <vehicle id="3" x="106.38" y="124.56" angle="115.93" type="car@3" speed="0.62" pos="26.44" lane="e1_1" slope="0.00"/>
        <vehicle id="test" x="115.78" y="116.43" angle="115.93" type="ev@test" speed="0.68" pos="38.45" lane="e1_0" slope="0.00"/>
    </timestep>
    <timestep time="49.00">
        <vehicle id="0" x="20.37" y="3.90" angle="299.33" type="car@0" speed="7.94" pos="68.76" lane="e4_0" slope="0.00"/>
        <vehicle id="1" x="22.18" y="-0.79" angle="299.34" type="car@1" speed="8.15" pos="64.89" lane="e4_1" slope="0.00"/>
        <vehicle id="2" x="159.28" y="10.12" angle="231.47" type="car@2" speed="7.35" pos="1.86" lane="e3_2" slope="0.00"/>
        <vehicle id="3" x="106.55" y="124.47" angle="115.93" type="car@3" speed="0.19" pos="26.63" lane="e1_1" slope="0.00"/>
        <vehicle id="test" x="116.37" y="116.14" angle="115.93" type="ev@test" speed="0.65" pos="39.10" lane="e1_0" slope="0.00"/>
    </timestep>
    <timestep time="50.00">
        <vehicle id="0" x="11.66" y="8.79" angle="299.33" type="car@0" speed="9.99" pos="78.75" lane="e4_0" slope="0.00"/>
        <vehicle id="1" x="15.84" y="2.77" angle="299.34" type="car@1" speed="7.27" pos="72.16" lane="e4_1" slope="0.00"/>
        <vehicle id="2" x="151.24" y="5.19" angle="238.51" type="car@2" speed="9.43" pos="11.29" lane="e3_2" slope="0.00"/>
        <vehicle id="3" x="107.28" y="124.12" angle="115.93" type="car@3" speed="0.81" pos="27.44" lane="e1_1" slope="0.00"/>
        <vehicle id="test" x="118.69" y="115.01" angle="115.93" type="ev@test" speed="2.58" pos="41.68" lane="e1_0" slope="0.00"/>
    </timestep>
    <timestep time="51.00">
        <vehicle id="0" x="4.87" y="12.61" angle="299.33" type="car@0" speed="7.79" pos="86.54" lane="e4_0" slope="0.00"/>
        <vehicle id="1" x="8.13" y="7.11" angle="299.34" type="car@1" speed="8.85" pos="81.01" lane="e4_1" slope="0.00"/>
        <vehicle id="2" x="145.08" y="1.41" angle="238.51" type="car@2" speed="7.23" pos="18.52" lane="e3_2" slope="0.00"/>
        <vehicle id="3" x="107.31" y="124.10" angle="115.93" type="car@3" speed="0.04" pos="27.48" lane="e1_1" slope="0.00"/>
        <vehicle id="test" x="121.20" y="113.79" angle="115.93" type="ev@test" speed="2.79" pos="44.48" lane="e1_0" slope="0.00"/>
    </timestep>
    <timestep time="52.00">
        <vehicle id="0" x="-0.01" y="15.35" angle="299.33" type="car@0" speed="5.59" pos="92.13" lane="e4_0" slope="0.00"/>
        <vehicle id="1" x="1.72" y="10.71" angle="299.34" type="car@1" speed="7.35" pos="88.36" lane="e4_1" slope="0.00"/>
        <vehicle id="2" x="138.41" y="-2.67" angle="238.51" type="car@2" speed="7.81" pos="26.34" lane="e3_2" slope="0.00"/>
        <vehicle id="3" x="109.22" y="123.18" angle="115.93" type="car@3" speed="2.12" pos="29.60" lane="e1_1" slope="0.00"/>
        <vehicle id="test" x="122.65" y="113.09" angle="115.93" type="ev@test" speed="1.61" pos="46.09" lane="e1_0" slope="0.00"/>
    </timestep>
    <timestep time="53.00">
        <vehicle id="0" x="-2.82" y="17.18" angle="301.90" type="car@0" speed="3.39" pos="0.85" lane=":j5_0_0" slope="0.00"/>
        <vehicle id="1" x="-3.38" y="13.57" angle="299.34" type="car@1" speed="5.84" pos="94.21" lane="e4_1" slope="0.00"/>
        <vehicle id="2" x="131.05" y="-7.18" angle="238.51" type="car@2" speed="8.64" pos="34.97" lane="e3_2" slope="0.00"/>
        <vehicle id="3" x="109.99" y="122.80" angle="115.93" type="car@3" speed="0.86" pos="30.46" lane="e1_1" slope="0.00"/>
        <vehicle id="test" x="124.55" y="112.17" angle="115.93" type="ev@test" speed="2.11" pos="48.20" lane="e1_0" slope="0.00"/>
    </timestep>
    <timestep time="54.00">
        <vehicle id="0" x="-3.05" y="18.33" angle="313.11" type="car@0" speed="1.19" pos="0.42" lane="e5_0" slope="0.00"/>
        <vehicle id="1" x="-5.85" y="16.13" angle="311.36" type="car@1" speed="3.64" pos="3.18" lane=":j5_0_1" slope="0.00"/>